 Gaussian 16, Revision B.01,
 Gaussian 16:  ES64L-G16RevB.01 20-Dec-2017

 ----------------------------------------------------------------------
 #M062X/6-311++G(2d,2p) opt=ModRedundant freq=noraman SCRF=(SMD,solvent
 =water)
 ----------------------------------------------------------------------

 --------------------------------
 4c1_b1_4e_4c1_PSI.inp_extract_10
 --------------------------------
 Symbolic Z-matrix:
 Charge =  0 Multiplicity = 1

 SCF Done:  E(RM062X) =  -617.499471433     A.U. after   12 cycles
 SCF Done:  E(RM062X) =  -617.500978185     A.U. after   11 cycles
 SCF Done:  E(RM062X) =  -617.501270588     A.U. after   11 cycles
 SCF Done:  E(RM062X) =  -617.501391451     A.U. after   10 cycles
 SCF Done:  E(RM062X) =  -617.501401487     A.U. after    8 cycles
 SCF Done:  E(RM062X) =  -617.501402062     A.U. after    7 cycles
 Optimization completed.
    -- Stationary point found.
 Normal termination of Gaussian 16 at Sun Mar 10 03:56:59 2019.

 ----------------------------------------------------------------------
 #N Geom=AllCheck Guess=TCheck SCRF=Check GenChk RM062X/6-311++G(2d,2p)
  Freq
 ----------------------------------------------------------------------

 Structure from the checkpoint file:  "4c1_b1_4e_4c1_PSI.inp_extract_10.chk"
 --------------------------------
 4c1_b1_4e_4c1_PSI.inp_extract_10
 --------------------------------
 Charge =  0 Multiplicity = 1

                         Standard orientation:
 ---------------------------------------------------------------------
 Center     Atomic      Atomic             Coordinates (Angstroms)
 Number     Number       Type             X           Y           Z
 ---------------------------------------------------------------------
      1          6           0        3.413712   -0.768127    0.778664
      2          6           0       -1.366929    1.018256   -0.008071
      3          6           0       -3.606847   -0.785674    0.125778
      4          8           0       -2.716657    1.462947   -0.055382
      5          8           0        1.524986    0.796891   -0.700454
      6          6           0        2.578533    1.450532    0.010945
      7          8           0        0.040771   -0.930428   -0.758807
      8          6           0        3.798100    0.552220    0.114992
      9          6           0       -2.186688   -1.342581    0.057692
     10          6           0        1.088914   -0.374330   -0.023373
     11          6           0       -3.583854    0.618052    0.700392
     12          6           0       -1.275795   -0.360802   -0.663344
     13          6           0        2.211822   -1.386947    0.064667
     14          1           0        4.252043   -1.463496    0.775317
     15          1           0        3.152136   -0.581408    1.823613
     16          1           0       -1.038462    0.984169    1.035340
     17          1           0       -0.776654    1.754026   -0.545742
     18          1           0       -4.040470   -0.751029   -0.875970
     19          1           0       -4.243200   -1.421416    0.741471
     20          1           0        2.219259    1.722868    1.010128
     21          1           0        2.793425    2.363916   -0.539002
     22          1           0        4.185808    0.366297   -0.889159
     23          1           0        4.574788    1.064897    0.683161
     24          1           0       -1.795040   -1.492132    1.068719
     25          1           0       -2.164052   -2.303546   -0.456072
     26          1           0        0.761749   -0.090786    0.983750
     27          1           0       -4.567029    1.082389    0.664197
     28          1           0       -3.242523    0.599115    1.741441
     29          1           0       -1.620816   -0.243857   -1.693220
     30          1           0        2.479927   -1.679629   -0.953281
     31          1           0        1.850501   -2.269248    0.592400
 ---------------------------------------------------------------------

 SCF Done:  E(RM062X) =  -617.501402062     A.U. after    1 cycles

 The electronic state is 1-A.
 Alpha  occ. eigenvalues --  -19.63602 -19.63193 -19.62885 -10.63345 -10.58560
 Alpha  occ. eigenvalues --  -10.57729 -10.57492 -10.57402 -10.52529 -10.52498
 Alpha  occ. eigenvalues --  -10.52435 -10.52418 -10.52232  -1.19830  -1.16361
 Alpha  occ. eigenvalues --   -1.13531  -0.90474  -0.89457  -0.86637  -0.83941
 Alpha  occ. eigenvalues --   -0.74758  -0.73815  -0.72264  -0.69498  -0.65758
 Alpha  occ. eigenvalues --   -0.64571  -0.59682  -0.57409  -0.57120  -0.55187
 Alpha  occ. eigenvalues --   -0.53995  -0.52607  -0.51464  -0.50898  -0.49733
 Alpha  occ. eigenvalues --   -0.48382  -0.47057  -0.45609  -0.45234  -0.43796
 Alpha  occ. eigenvalues --   -0.42044  -0.41929  -0.40307  -0.39763  -0.39517
 Alpha  occ. eigenvalues --   -0.38746  -0.37574  -0.37290  -0.34153  -0.32625
 Alpha  occ. eigenvalues --   -0.32120
 Alpha virt. eigenvalues --    0.00465   0.01271   0.01317   0.01589   0.02590
 Alpha virt. eigenvalues --    0.02920   0.02982   0.03999   0.04160   0.04778
 Alpha virt. eigenvalues --    0.04969   0.05192   0.05978   0.06289   0.07553

 Mulliken charges:
               1
     1  C   -0.397233
     2  C   -0.328802
     3  C   -0.393698
     4  O   -0.409452
     5  O   -0.410107
     6  C   -0.095817
     7  O   -0.428741
     8  C   -0.390091
     9  C   -0.140432
    10  C    0.089655
    11  C   -0.151368
    12  C   -0.187377
    13  C   -0.283229
    14  H    0.203934
    15  H    0.172359
    16  H    0.226082
    17  H    0.231014
    18  H    0.173109
    19  H    0.175032
    20  H    0.155646
    21  H    0.200478
    22  H    0.162488
    23  H    0.182683
    24  H    0.184540
    25  H    0.184746
    26  H    0.277491
    27  H    0.218292
    28  H    0.144818
    29  H    0.259982
    30  H    0.201914
    31  H    0.172081
 Sum of Mulliken charges =  -0.00000

 Dipole moment (field-independent basis, Debye):
    X=              1.1167    Y=             -1.1279    Z=              4.1185  Tot=              4.4138
 Quadrupole moment (field-independent basis, Debye-Ang):
   XX=            -68.0658   YY=            -83.7304   ZZ=            -80.8621
   XY=              7.6365   XZ=              0.2858   YZ=              0.5330

  Exact polarizability: 188.737   3.098 172.817   0.814   0.322 166.718
 Approx polarizability: 148.895   1.771 142.131   0.811  -0.243 141.770

 ******    1 imaginary frequencies (negative Signs) ******

                      1                      2                      3
                      A                      A                      A
 Frequencies --    -75.7872                62.4913                79.8535
 Red. masses --      3.3354                 3.8699                 3.8926
 Frc consts  --      0.0113                 0.0089                 0.0146
 IR Inten    --      1.6920                 2.1195                 1.3656

                      4                      5                      6
                      A                      A                      A
 Frequencies --    140.0155               210.6204               238.2521
 Red. masses --      2.7583                 3.4271                 2.0529
 Frc consts  --      0.0319                 0.0896                 0.0687
 IR Inten    --      3.6484                 2.3842                 9.6549

                      7                      8                      9
                      A                      A                      A
 Frequencies --    251.5943               267.1789               304.1789
 Red. masses --      2.3659                 3.1742                 3.8092
 Frc consts  --      0.0882                 0.1335                 0.2077
 IR Inten    --      3.6471                 7.1438                 1.9445

                     10                     11                     12
                      A                      A                      A
 Frequencies --    357.0712               381.1453               426.0941
 Red. masses --      1.9993                 2.6157                 2.8632
 Frc consts  --      0.1502                 0.2239                 0.3063
 IR Inten    --      3.2993                16.3777                 5.7520

                     13                     14                     15
                      A                      A                      A
 Frequencies --    448.1004               466.0975               473.5380
 Red. masses --      3.6328                 2.9223                 3.1380
 Frc consts  --      0.4298                 0.3740                 0.4146
 IR Inten    --      3.7953                 1.5346                 0.9352

                     16                     17                     18
                      A                      A                      A
 Frequencies --    527.5139               547.7356               601.3169
 Red. masses --      2.2518                 2.3383                 2.5016
 Frc consts  --      0.3692                 0.4133                 0.5329
 IR Inten    --      2.9271                11.2452                 5.4843

                     19                     20                     21
                      A                      A                      A
 Frequencies --    643.4799               823.6433               833.6049
 Red. masses --      3.1290                 2.1492                 1.8145
 Frc consts  --      0.7634                 0.8590                 0.7429
 IR Inten    --      7.6417                 2.7327                10.3381

                     22                     23                     24
                      A                      A                      A
 Frequencies --    863.1062               874.3353               880.9575
 Red. masses --      1.8830                 1.4331                 1.9511
 Frc consts  --      0.8265                 0.6455                 0.8922
 IR Inten    --     18.5326                14.5580                 8.8044

                     25                     26                     27
                      A                      A                      A
 Frequencies --    897.4952               930.5785               940.0727
 Red. masses --      2.4302                 2.4684                 2.1981
 Frc consts  --      1.1534                 1.2594                 1.1445
 IR Inten    --     20.7003                33.1652                69.4284

                     28                     29                     30
                      A                      A                      A
 Frequencies --    957.6119               981.8385               996.4252
 Red. masses --      2.2040                 1.5315                 1.9271
 Frc consts  --      1.1908                 0.8699                 1.1273
 IR Inten    --     13.8749                13.3722                41.8013

                     31                     32                     33
                      A                      A                      A
 Frequencies --   1004.1838              1048.1567              1056.5974
 Red. masses --      2.0326                 1.8253                 1.5515
 Frc consts  --      1.2076                 1.1815                 1.0205
 IR Inten    --     13.9714                24.4417               110.3731

                     34                     35                     36
                      A                      A                      A
 Frequencies --   1068.0866              1094.6744              1116.9108
 Red. masses --      2.7046                 2.3511                 3.9805
 Frc consts  --      1.8179                 1.6599                 2.9257
 IR Inten    --     20.3156                66.0506               311.9490

                     37                     38                     39
                      A                      A                      A
 Frequencies --   1141.2689              1154.0734              1173.1340
 Red. masses --      3.5229                 2.5345                 2.2385
 Frc consts  --      2.7035                 1.9889                 1.8151
 IR Inten    --    179.1608                23.1292                20.6438

                     40                     41                     42
                      A                      A                      A
 Frequencies --   1186.0625              1203.5338              1209.6434
 Red. masses --      2.3128                 1.5305                 1.4648
 Frc consts  --      1.9169                 1.3062                 1.2629
 IR Inten    --     15.3291                36.3295                31.3822

                     43                     44                     45
                      A                      A                      A
 Frequencies --   1211.9661              1238.4497              1246.8862
 Red. masses --      3.0543                 1.6555                 1.5200
 Frc consts  --      2.6433                 1.4960                 1.3923
 IR Inten    --    261.4421                35.6313                13.7259

                     46                     47                     48
                      A                      A                      A
 Frequencies --   1279.1079              1303.0071              1313.8529
 Red. masses --      1.2305                 1.1627                 1.1933
 Frc consts  --      1.1862                 1.1631                 1.2136
 IR Inten    --      4.4890                21.5501                31.3136

                     49                     50                     51
                      A                      A                      A
 Frequencies --   1334.2999              1345.4412              1350.1567
 Red. masses --      1.3072                 1.2865                 1.3158
 Frc consts  --      1.3712                 1.3721                 1.4132
 IR Inten    --      9.8291                 5.5681                 0.7221

                     52                     53                     54
                      A                      A                      A
 Frequencies --   1366.8930              1371.4020              1383.1668
 Red. masses --      1.4143                 1.2433                 1.4101
 Frc consts  --      1.5569                 1.3777                 1.5895
 IR Inten    --      1.5269                 9.6489                10.0423

                     55                     56                     57
                      A                      A                      A
 Frequencies --   1384.6958              1391.6962              1401.2021
 Red. masses --      1.4759                 1.3094                 1.4811
 Frc consts  --      1.6674                 1.4942                 1.7134
 IR Inten    --      1.6805                28.2826                22.3885

                     58                     59                     60
                      A                      A                      A
 Frequencies --   1412.4585              1418.9109              1431.5478
 Red. masses --      1.3719                 1.3437                 1.4042
 Frc consts  --      1.6126                 1.5939                 1.6954
 IR Inten    --     11.2671                12.2184                 8.8762

                     61                     62                     63
                      A                      A                      A
 Frequencies --   1437.5626              1471.2747              1472.7316
 Red. masses --      1.5721                 1.1093                 1.0947
 Frc consts  --      1.9142                 1.4147                 1.3989
 IR Inten    --     70.2232                 3.8816                 7.6042

                     64                     65                     66
                      A                      A                      A
 Frequencies --   1473.7821              1486.3487              1489.9674
 Red. masses --      1.1037                 1.1185                 1.1184
 Frc consts  --      1.4124                 1.4558                 1.4628
 IR Inten    --     10.3392                13.1576                23.3156

                     67                     68                     69
                      A                      A                      A
 Frequencies --   1497.7871              1502.9256              1506.1419
 Red. masses --      1.0834                 1.0961                 1.0997
 Frc consts  --      1.4320                 1.4587                 1.4698
 IR Inten    --      1.9706                 5.6483                 6.5600

                     70                     71                     72
                      A                      A                      A
 Frequencies --   3031.7917              3034.3217              3036.9246
 Red. masses --      1.0719                 1.0777                 1.0697
 Frc consts  --      5.8050                 5.8464                 5.8125
 IR Inten    --     42.1156                65.8536                60.3658

                     73                     74                     75
                      A                      A                      A
 Frequencies --   3051.7399              3055.0087              3060.9968
 Red. masses --      1.0671                 1.0731                 1.0686
 Frc consts  --      5.8555                 5.9009                 5.8991
 IR Inten    --     17.4640                57.9284                23.9758

                     76                     77                     78
                      A                      A                      A
 Frequencies --   3068.8784              3071.6847              3072.0878
 Red. masses --      1.0617                 1.0628                 1.0619
 Frc consts  --      5.8914                 5.9084                 5.9050
 IR Inten    --     40.0382                35.6587                40.9664

                     79                     80                     81
                      A                      A                      A
 Frequencies --   3075.7016              3118.2006              3118.4329
 Red. masses --      1.0819                 1.0975                 1.0977
 Frc consts  --      6.0301                 6.2872                 6.2893
 IR Inten    --    104.8169                45.6326                32.7463

                     82                     83                     84
                      A                      A                      A
 Frequencies --   3121.6156              3122.9757              3129.3399
 Red. masses --      1.1013                 1.1030                 1.1035
 Frc consts  --      6.3229                 6.3381                 6.3669
 IR Inten    --     59.5302                59.0927                52.6170

                     85                     86                     87
                      A                      A                      A
 Frequencies --   3139.3673              3141.3764              3167.4184
 Red. masses --      1.0965                 1.0955                 1.0965
 Frc consts  --      6.3670                 6.3692                 6.4814
 IR Inten    --     44.6937                40.3871                20.9310

 - Thermochemistry -
 -------------------
 Temperature   298.150 Kelvin.  Pressure   1.00000 Atm.
 Atom     1 has atomic number  6 and mass  12.00000

 Molecular mass:   186.12559 amu.
 Principal axes and moments of inertia in atomic units:
                           1         2         3
     Eigenvalues --   921.125644478.884505006.45692
           X            0.99997   0.00811   0.00140
           Y           -0.00811   0.99997   0.00057
           Z           -0.00140  -0.00058   1.00000
 This molecule is an asymmetric top.
 Rotational symmetry number  1.
 Warning -- assumption of classical behavior for rotation
           may cause significant error
 Rotational temperatures (Kelvin)      0.09403     0.01934     0.01730
 Rotational constants (GHZ):           1.95928     0.40294     0.36048
    1 imaginary frequencies ignored.
 Zero-point vibrational energy     735726.1 (Joules/Mol)
                                  175.84276 (Kcal/Mol)
 Warning -- explicit consideration of  17 degrees of freedom as
           vibrations may cause significant error
 Vibrational temperatures:     89.91   114.89   201.45   303.04   342.79
          (Kelvin)            361.99   384.41   437.65   513.75   548.38
                              613.05   644.72   670.61   681.32   758.97
                              788.07   865.16   925.82  1185.04  1199.37
                             1241.82  1257.97  1267.50  1291.30  1338.89
                             1352.55  1377.79  1412.65  1433.63  1444.80
                             1508.06  1520.21  1536.74  1574.99  1606.99
                             1642.03  1660.45  1687.88  1706.48  1731.62
                             1740.41  1743.75  1781.85  1793.99  1840.35
                             1874.74  1890.34  1919.76  1935.79  1942.57
                             1966.65  1973.14  1990.07  1992.27  2002.34
                             2016.02  2032.21  2041.50  2059.68  2068.33
                             2116.84  2118.93  2120.44  2138.52  2143.73
                             2154.98  2162.37  2167.00  4362.07  4365.71
                             4369.46  4390.77  4395.48  4404.09  4415.43
                             4419.47  4420.05  4425.25  4486.40  4486.73
                             4491.31  4493.27  4502.42  4516.85  4519.74
                             4557.21

 Zero-point correction=                           0.280223 (Hartree/Particle)
 Thermal correction to Energy=                    0.291224
 Thermal correction to Enthalpy=                  0.292168
 Thermal correction to Gibbs Free Energy=         0.243375
 Sum of electronic and zero-point Energies=           -617.221179
 Sum of electronic and thermal Energies=              -617.210178
 Sum of electronic and thermal Enthalpies=            -617.209234
 Sum of electronic and thermal Free Energies=         -617.258027

                     E (Thermal)             CV                S
                      KCal/Mol        Cal/Mol-Kelvin    Cal/Mol-Kelvin
 Total                  182.746             45.079            102.694
 Electronic               0.000              0.000              0.000
 Translational            0.889              2.981             41.570
 Rotational               0.889              2.981             31.402
 Vibrational            180.969             39.117             29.722
 Vibration     1          0.597              1.972              4.377
 Vibration     2          0.600              1.963              3.894
 Vibration     3          0.615              1.913              2.804
 Vibration     4          0.643              1.825              2.038
 Vibration     5          0.656              1.782              1.816
 Vibration     6          0.664              1.760              1.719
 Vibration     7          0.672              1.733              1.614
 Vibration     8          0.695              1.666              1.394
 Vibration     9          0.732              1.561              1.135
 Vibration    10          0.751              1.510              1.035
 Vibration    11          0.788              1.413              0.872
 Vibration    12          0.807              1.365              0.802
 Vibration    13          0.823              1.325              0.749
 Vibration    14          0.830              1.309              0.728
 Vibration    15          0.882              1.189              0.593
 Vibration    16          0.903              1.145              0.549
 Vibration    17          0.960              1.029              0.447

                           ! Non-Optimized Parameters !
 Normal termination of Gaussian 16 at Sun Mar 10 04:55:26 2019.
