 Gaussian 16, Revision B.01,
 Gaussian 16:  ES64L-G16RevB.01 20-Dec-2017

 ----------------------------------------------------------------------
 #M062X/6-311++G(2d,2p) opt=ModRedundant freq=noraman SCRF=(SMD,solvent
 =water)
 ----------------------------------------------------------------------

 -------------------------------
 4c1_b1_4e_4c1_PSI.inp_extract_6
 -------------------------------
 Symbolic Z-matrix:
 Charge =  0 Multiplicity = 1

 SCF Done:  E(RM062X) =  -617.504943170     A.U. after   12 cycles
 SCF Done:  E(RM062X) =  -617.506615430     A.U. after   10 cycles
 SCF Done:  E(RM062X) =  -617.506790237     A.U. after   10 cycles
 SCF Done:  E(RM062X) =  -617.506846329     A.U. after    9 cycles
 SCF Done:  E(RM062X) =  -617.506851962     A.U. after    8 cycles
 SCF Done:  E(RM062X) =  -617.506852499     A.U. after    7 cycles
 Optimization completed.
    -- Stationary point found.
 Normal termination of Gaussian 16 at Sun Mar 10 02:40:22 2019.

 ----------------------------------------------------------------------
 #N Geom=AllCheck Guess=TCheck SCRF=Check GenChk RM062X/6-311++G(2d,2p)
  Freq
 ----------------------------------------------------------------------

 Structure from the checkpoint file:  "4c1_b1_4e_4c1_PSI.inp_extract_6.chk"
 -------------------------------
 4c1_b1_4e_4c1_PSI.inp_extract_6
 -------------------------------
 Charge =  0 Multiplicity = 1

                         Standard orientation:
 ---------------------------------------------------------------------
 Center     Atomic      Atomic             Coordinates (Angstroms)
 Number     Number       Type             X           Y           Z
 ---------------------------------------------------------------------
      1          6           0       -3.594671    0.504205    0.750045
      2          6           0        1.462066   -0.756204    0.730060
      3          6           0        3.626893    0.527401   -0.648859
      4          8           0        2.687032   -1.418149    0.452058
      5          8           0       -1.451820   -0.560464   -0.830231
      6          6           0       -2.597141   -1.371603   -0.555567
      7          8           0       -0.015505    1.039767   -0.071904
      8          6           0       -3.834732   -0.513349   -0.363320
      9          6           0        2.308862    1.270896   -0.449979
     10          6           0       -1.168200    0.312896    0.250200
     11          6           0        3.793656   -0.517590    0.437841
     12          6           0        1.163103    0.279103   -0.352245
     13          6           0       -2.306998    1.282611    0.479321
     14          1           0       -4.436666    1.189253    0.838371
     15          1           0       -3.502727   -0.021584    1.704043
     16          1           0        1.512404   -0.261081    1.707588
     17          1           0        0.702013   -1.534194    0.763651
     18          1           0        3.636904    0.033096   -1.622491
     19          1           0        4.467226    1.220816   -0.619205
     20          1           0       -2.402758   -1.967269    0.343554
     21          1           0       -2.698589   -2.046544   -1.402155
     22          1           0       -4.054653    0.004060   -1.299860
     23          1           0       -4.683617   -1.156566   -0.129997
     24          1           0        2.345534    1.842375    0.481513
     25          1           0        2.121411    1.969617   -1.265313
     26          1           0       -1.007979   -0.295090    1.149370
     27          1           0        4.679060   -1.128486    0.275616
     28          1           0        3.873167   -0.036545    1.419190
     29          1           0        1.041601   -0.242030   -1.305175
     30          1           0       -2.412131    1.896083   -0.418364
     31          1           0       -2.054884    1.934670    1.315313
 ---------------------------------------------------------------------

 SCF Done:  E(RM062X) =  -617.506852499     A.U. after    1 cycles

 The electronic state is 1-A.
 Alpha  occ. eigenvalues --  -19.63817 -19.63215 -19.63132 -10.63308 -10.58383
 Alpha  occ. eigenvalues --  -10.57676 -10.57579 -10.57406 -10.52591 -10.52571
 Alpha  occ. eigenvalues --  -10.52518 -10.52467 -10.52270  -1.20186  -1.16402
 Alpha  occ. eigenvalues --   -1.13709  -0.90693  -0.89507  -0.86625  -0.83871
 Alpha  occ. eigenvalues --   -0.74991  -0.73743  -0.72211  -0.69328  -0.65362
 Alpha  occ. eigenvalues --   -0.64908  -0.59822  -0.57811  -0.57330  -0.55129
 Alpha  occ. eigenvalues --   -0.54161  -0.52343  -0.52306  -0.50954  -0.49806
 Alpha  occ. eigenvalues --   -0.48014  -0.46528  -0.45444  -0.45230  -0.44032
 Alpha  occ. eigenvalues --   -0.43384  -0.41396  -0.40135  -0.39989  -0.39328
 Alpha  occ. eigenvalues --   -0.38360  -0.37396  -0.36899  -0.35635  -0.32957
 Alpha  occ. eigenvalues --   -0.31877
 Alpha virt. eigenvalues --    0.00507   0.01274   0.01356   0.01571   0.02588
 Alpha virt. eigenvalues --    0.02859   0.02960   0.04065   0.04293   0.04714
 Alpha virt. eigenvalues --    0.04876   0.05167   0.06014   0.06068   0.07288

 Mulliken charges:
               1
     1  C   -0.431048
     2  C   -0.327344
     3  C   -0.393524
     4  O   -0.385960
     5  O   -0.385562
     6  C   -0.115882
     7  O   -0.393139
     8  C   -0.346379
     9  C   -0.309507
    10  C    0.065869
    11  C   -0.125917
    12  C   -0.080580
    13  C   -0.337772
    14  H    0.205574
    15  H    0.174514
    16  H    0.230002
    17  H    0.242500
    18  H    0.170490
    19  H    0.188444
    20  H    0.150353
    21  H    0.199585
    22  H    0.164915
    23  H    0.179631
    24  H    0.207913
    25  H    0.185117
    26  H    0.266303
    27  H    0.215293
    28  H    0.145651
    29  H    0.259813
    30  H    0.198120
    31  H    0.182529
 Sum of Mulliken charges =  -0.00000

 Dipole moment (field-independent basis, Debye):
    X=             -1.3805    Y=              0.3708    Z=              1.9696  Tot=              2.4337
 Quadrupole moment (field-independent basis, Debye-Ang):
   XX=            -63.7867   YY=            -84.6262   ZZ=            -79.6678
   XY=              8.4838   XZ=             -2.5101   YZ=              0.7302

  Exact polarizability: 188.223   2.582 172.033  -1.852   1.252 167.752
 Approx polarizability: 148.277   1.859 143.060  -1.192   1.235 141.042

                      1                      2                      3
                      A                      A                      A
 Frequencies --     33.8786                58.8918                88.2425
 Red. masses --      3.4800                 3.7624                 3.9536
 Frc consts  --      0.0024                 0.0077                 0.0181
 IR Inten    --      1.7900                 3.0299                 2.8416

                      4                      5                      6
                      A                      A                      A
 Frequencies --    158.2607               191.3844               246.8692
 Red. masses --      2.8965                 3.4503                 2.3305
 Frc consts  --      0.0427                 0.0745                 0.0837
 IR Inten    --      3.0453                 3.3940                11.5126

                      7                      8                      9
                      A                      A                      A
 Frequencies --    251.1826               282.7054               315.8505
 Red. masses --      2.1185                 3.3652                 3.0840
 Frc consts  --      0.0788                 0.1585                 0.1813
 IR Inten    --      3.2285                 3.4325                 2.4048

                     10                     11                     12
                      A                      A                      A
 Frequencies --    358.4571               375.9320               444.0844
 Red. masses --      2.1911                 2.4171                 3.6577
 Frc consts  --      0.1659                 0.2013                 0.4250
 IR Inten    --     11.0737                20.2833                 0.7860

                     13                     14                     15
                      A                      A                      A
 Frequencies --    453.6363               456.0804               488.0147
 Red. masses --      2.9562                 2.9707                 2.6912
 Frc consts  --      0.3584                 0.3641                 0.3776
 IR Inten    --      1.7691                 2.9169                 0.3702

                     16                     17                     18
                      A                      A                      A
 Frequencies --    519.0485               548.3775               604.3427
 Red. masses --      2.6519                 2.0800                 2.5335
 Frc consts  --      0.4209                 0.3685                 0.5452
 IR Inten    --      3.6044                19.8213                 0.4686

                     19                     20                     21
                      A                      A                      A
 Frequencies --    651.2581               830.7802               837.0435
 Red. masses --      3.0630                 2.1876                 1.7471
 Frc consts  --      0.7654                 0.8896                 0.7212
 IR Inten    --     10.0322                 1.1919                 4.5347

                     22                     23                     24
                      A                      A                      A
 Frequencies --    862.6203               878.4506               884.9620
 Red. masses --      1.9617                 1.4062                 1.9001
 Frc consts  --      0.8600                 0.6393                 0.8768
 IR Inten    --     17.5311                13.4524                 7.8521

                     25                     26                     27
                      A                      A                      A
 Frequencies --    900.8309               939.0688               945.6203
 Red. masses --      2.3420                 2.3499                 2.2586
 Frc consts  --      1.1198                 1.2209                 1.1899
 IR Inten    --     11.2722                36.5378                27.8607

                     28                     29                     30
                      A                      A                      A
 Frequencies --    960.1154               988.6647               995.5355
 Red. masses --      2.0951                 1.8541                 1.6932
 Frc consts  --      1.1379                 1.0678                 0.9887
 IR Inten    --     21.5727                32.9352                13.2692

                     31                     32                     33
                      A                      A                      A
 Frequencies --   1005.0720              1054.8292              1061.2951
 Red. masses --      1.8680                 1.7649                 1.4983
 Frc consts  --      1.1118                 1.1570                 0.9943
 IR Inten    --     21.0182                19.1170                64.9865

                     34                     35                     36
                      A                      A                      A
 Frequencies --   1084.8712              1100.7091              1134.3418
 Red. masses --      3.0921                 2.7353                 3.4371
 Frc consts  --      2.1442                 1.9526                 2.6057
 IR Inten    --     43.3191               106.2918               229.4560

                     37                     38                     39
                      A                      A                      A
 Frequencies --   1151.4382              1157.1103              1175.2808
 Red. masses --      2.6602                 2.6552                 2.3169
 Frc consts  --      2.0780                 2.0945                 1.8855
 IR Inten    --    123.5092                56.2986                44.0999

                     40                     41                     42
                      A                      A                      A
 Frequencies --   1184.9825              1202.0902              1216.5703
 Red. masses --      2.1068                 1.4912                 1.5897
 Frc consts  --      1.7430                 1.2696                 1.3863
 IR Inten    --      0.0647                 5.9422               164.2751

                     43                     44                     45
                      A                      A                      A
 Frequencies --   1241.7364              1243.2984              1255.1075
 Red. masses --      3.6916                 1.7198                 1.5465
 Frc consts  --      3.3537                 1.5663                 1.4353
 IR Inten    --    174.5425                44.4916                77.4025

                     46                     47                     48
                      A                      A                      A
 Frequencies --   1279.0063              1303.7864              1315.6052
 Red. masses --      1.2308                 1.1664                 1.2233
 Frc consts  --      1.1862                 1.1682                 1.2475
 IR Inten    --      5.4459                10.7107                33.2089

                     49                     50                     51
                      A                      A                      A
 Frequencies --   1329.9141              1338.0609              1348.8892
 Red. masses --      1.2752                 1.1890                 1.3092
 Frc consts  --      1.3288                 1.2542                 1.4035
 IR Inten    --     15.2415                 0.9597                 4.2954

                     52                     53                     54
                      A                      A                      A
 Frequencies --   1364.2608              1366.9588              1383.2868
 Red. masses --      1.3250                 1.4075                 1.4794
 Frc consts  --      1.4530                 1.5495                 1.6679
 IR Inten    --      9.4983                 1.2564                 5.8081

                     55                     56                     57
                      A                      A                      A
 Frequencies --   1384.8199              1397.1308              1406.9670
 Red. masses --      1.5234                 1.2598                 1.4646
 Frc consts  --      1.7213                 1.4489                 1.7082
 IR Inten    --      6.9093                26.3263                16.0546

                     58                     59                     60
                      A                      A                      A
 Frequencies --   1412.1411              1421.5224              1436.6558
 Red. masses --      1.4804                 1.3185                 1.4175
 Frc consts  --      1.7394                 1.5697                 1.7237
 IR Inten    --      9.3032                14.3649                 0.3099

                     61                     62                     63
                      A                      A                      A
 Frequencies --   1447.4156              1472.2349              1473.0919
 Red. masses --      1.5138                 1.1298                 1.0967
 Frc consts  --      1.8685                 1.4429                 1.4022
 IR Inten    --     57.7892                 3.9152                 8.4708

                     64                     65                     66
                      A                      A                      A
 Frequencies --   1473.5924              1489.7714              1490.3712
 Red. masses --      1.0964                 1.1243                 1.1262
 Frc consts  --      1.4028                 1.4702                 1.4739
 IR Inten    --     10.8703                11.7134                23.6414

                     67                     68                     69
                      A                      A                      A
 Frequencies --   1496.6432              1503.4335              1504.7824
 Red. masses --      1.0866                 1.1009                 1.0974
 Frc consts  --      1.4340                 1.4661                 1.4641
 IR Inten    --      7.0855                 7.2799                 5.6772

                     70                     71                     72
                      A                      A                      A
 Frequencies --   3028.1318              3031.2804              3035.9522
 Red. masses --      1.0756                 1.0755                 1.0698
 Frc consts  --      5.8107                 5.8224                 5.8096
 IR Inten    --     20.0504                98.3044                71.2393

                     73                     74                     75
                      A                      A                      A
 Frequencies --   3036.8946              3060.1138              3061.7922
 Red. masses --      1.0703                 1.0665                 1.0687
 Frc consts  --      5.8158                 5.8843                 5.9026
 IR Inten    --     78.2878                14.6427                24.7482

                     76                     77                     78
                      A                      A                      A
 Frequencies --   3070.0806              3073.7271              3073.8971
 Red. masses --      1.0616                 1.0741                 1.0627
 Frc consts  --      5.8951                 5.9791                 5.9159
 IR Inten    --     40.8212                16.2317                47.5791

                     79                     80                     81
                      A                      A                      A
 Frequencies --   3075.0964              3118.9588              3119.4117
 Red. masses --      1.0676                 1.0997                 1.0983
 Frc consts  --      5.9483                 6.3030                 6.2967
 IR Inten    --     92.5547                47.2786                38.5473

                     82                     83                     84
                      A                      A                      A
 Frequencies --   3123.1232              3126.2076              3130.0404
 Red. masses --      1.1003                 1.1026                 1.1040
 Frc consts  --      6.3232                 6.3490                 6.3729
 IR Inten    --     55.6849                54.0491                52.9844

                     85                     86                     87
                      A                      A                      A
 Frequencies --   3138.5342              3140.6466              3143.3472
 Red. masses --      1.0959                 1.0967                 1.0959
 Frc consts  --      6.3602                 6.3737                 6.3799
 IR Inten    --     34.5358                37.1063                40.8822

 - Thermochemistry -
 -------------------
 Temperature   298.150 Kelvin.  Pressure   1.00000 Atm.
 Atom     1 has atomic number  6 and mass  12.00000

 Molecular mass:   186.12559 amu.
 Principal axes and moments of inertia in atomic units:
                           1         2         3
     Eigenvalues --   854.636504744.673975095.89202
           X            0.99996   0.00831  -0.00446
           Y           -0.00828   0.99995   0.00610
           Z            0.00451  -0.00606   0.99997
 This molecule is an asymmetric top.
 Rotational symmetry number  1.
 Warning -- assumption of classical behavior for rotation
           may cause significant error
 Rotational temperatures (Kelvin)      0.10135     0.01825     0.01700
 Rotational constants (GHZ):           2.11171     0.38037     0.35416
 Zero-point vibrational energy     737177.8 (Joules/Mol)
                                  176.18972 (Kcal/Mol)
 Warning -- explicit consideration of  18 degrees of freedom as
           vibrations may cause significant error
 Vibrational temperatures:     48.74    84.73   126.96   227.70   275.36
          (Kelvin)            355.19   361.40   406.75   454.44   515.74
                              540.88   638.94   652.68   656.20   702.14
                              746.80   788.99   869.51   937.02  1195.31
                             1204.32  1241.12  1263.89  1273.26  1296.09
                             1351.11  1360.54  1381.39  1422.47  1432.35
                             1446.07  1517.66  1526.97  1560.89  1583.67
                             1632.06  1656.66  1664.82  1690.97  1704.93
                             1729.54  1750.37  1786.58  1788.83  1805.82
                             1840.20  1875.86  1892.86  1913.45  1925.17
                             1940.75  1962.87  1966.75  1990.24  1992.45
                             2010.16  2024.31  2031.76  2045.25  2067.03
                             2082.51  2118.22  2119.45  2120.17  2143.45
                             2144.31  2153.34  2163.11  2165.05  4356.81
                             4361.34  4368.06  4369.41  4402.82  4405.24
                             4417.16  4422.41  4422.65  4424.38  4487.49
                             4488.14  4493.48  4497.92  4503.43  4515.65
                             4518.69  4522.58

 Zero-point correction=                           0.280776 (Hartree/Particle)
 Thermal correction to Energy=                    0.292551
 Thermal correction to Enthalpy=                  0.293495
 Thermal correction to Gibbs Free Energy=         0.242271
 Sum of electronic and zero-point Energies=           -617.226076
 Sum of electronic and thermal Energies=              -617.214302
 Sum of electronic and thermal Enthalpies=            -617.213358
 Sum of electronic and thermal Free Energies=         -617.264582

                     E (Thermal)             CV                S
                      KCal/Mol        Cal/Mol-Kelvin    Cal/Mol-Kelvin
 Total                  183.578             46.795            107.810
 Electronic               0.000              0.000              0.000
 Translational            0.889              2.981             41.570
 Rotational               0.889              2.981             31.403
 Vibrational            181.801             40.833             34.838
 Vibration     1          0.594              1.983              5.588
 Vibration     2          0.596              1.974              4.494
 Vibration     3          0.601              1.957              3.699
 Vibration     4          0.621              1.893              2.570
 Vibration     5          0.634              1.852              2.214
 Vibration     6          0.661              1.768              1.753
 Vibration     7          0.663              1.761              1.722
 Vibration     8          0.682              1.706              1.517
 Vibration     9          0.703              1.643              1.331
 Vibration    10          0.733              1.558              1.129
 Vibration    11          0.747              1.521              1.055
 Vibration    12          0.804              1.374              0.814
 Vibration    13          0.812              1.353              0.785
 Vibration    14          0.814              1.347              0.778
 Vibration    15          0.844              1.277              0.689
 Vibration    16          0.874              1.208              0.612
 Vibration    17          0.904              1.143              0.548
 Vibration    18          0.963              1.023              0.442

 Optimization completed.
    -- Stationary point found.
 Normal termination of Gaussian 16 at Sun Mar 10 03:42:10 2019.
