 Gaussian 16, Revision B.01,
 Gaussian 16:  ES64L-G16RevB.01 20-Dec-2017

 ----------------------------------------------------------------------
 #M062X/6-311++G(2d,2p) opt=ModRedundant freq=noraman SCRF=(SMD,solvent
 =water)
 ----------------------------------------------------------------------

 -------------------------------
 4c1_b1_4e_4c1_PSI.inp_extract_8
 -------------------------------
 Symbolic Z-matrix:
 Charge =  0 Multiplicity = 1

 SCF Done:  E(RM062X) =  -617.501739235     A.U. after   12 cycles
 SCF Done:  E(RM062X) =  -617.503390373     A.U. after   11 cycles
 SCF Done:  E(RM062X) =  -617.503633945     A.U. after   10 cycles
 SCF Done:  E(RM062X) =  -617.503733314     A.U. after    9 cycles
 SCF Done:  E(RM062X) =  -617.503738014     A.U. after    8 cycles
 SCF Done:  E(RM062X) =  -617.503738318     A.U. after    7 cycles
 Optimization completed.
    -- Stationary point found.
 Normal termination of Gaussian 16 at Sun Mar 10 02:39:21 2019.

 ----------------------------------------------------------------------
 #N Geom=AllCheck Guess=TCheck SCRF=Check GenChk RM062X/6-311++G(2d,2p)
  Freq
 ----------------------------------------------------------------------

 Structure from the checkpoint file:  "4c1_b1_4e_4c1_PSI.inp_extract_8.chk"
 -------------------------------
 4c1_b1_4e_4c1_PSI.inp_extract_8
 -------------------------------
 Charge =  0 Multiplicity = 1

                         Standard orientation:
 ---------------------------------------------------------------------
 Center     Atomic      Atomic             Coordinates (Angstroms)
 Number     Number       Type             X           Y           Z
 ---------------------------------------------------------------------
      1          6           0       -3.484301    0.620156    0.828699
      2          6           0        1.353592   -0.879774    0.399419
      3          6           0        3.691086    0.635916   -0.271219
      4          8           0        2.622148   -1.488598    0.207292
      5          8           0       -1.521714   -0.639648   -0.835263
      6          6           0       -2.620422   -1.407489   -0.339032
      7          8           0       -0.023140    1.025081   -0.441329
      8          6           0       -3.836974   -0.526292   -0.116906
      9          6           0        2.328164    1.319377   -0.190172
     10          6           0       -1.122891    0.356029    0.098807
     11          6           0        3.690565   -0.618964    0.581303
     12          6           0        1.227928    0.327349   -0.532056
     13          6           0       -2.238790    1.352286    0.328535
     14          1           0       -4.316880    1.315987    0.922519
     15          1           0       -3.286198    0.215872    1.824919
     16          1           0        1.254534   -0.563531    1.443921
     17          1           0        0.607800   -1.641488    0.182963
     18          1           0        3.910893    0.364117   -1.305699
     19          1           0        4.479103    1.306825    0.070735
     20          1           0       -2.322654   -1.890677    0.598822
     21          1           0       -2.809465   -2.180546   -1.080240
     22          1           0       -4.163984   -0.127779   -1.079946
     23          1           0       -4.649258   -1.131013    0.287258
     24          1           0        2.150804    1.682184    0.825720
     25          1           0        2.278265    2.174040   -0.865367
     26          1           0       -0.866490   -0.141245    1.040856
     27          1           0        4.606743   -1.191537    0.454093
     28          1           0        3.581725   -0.360057    1.640381
     29          1           0        1.346643   -0.030190   -1.558476
     30          1           0       -2.443595    1.853538   -0.620204
     31          1           0       -1.904076    2.099258    1.047877
 ---------------------------------------------------------------------

 SCF Done:  E(RM062X) =  -617.503738318     A.U. after    1 cycles

 The electronic state is 1-A.
 Alpha  occ. eigenvalues --  -19.63701 -19.63244 -19.62957 -10.63331 -10.58561
 Alpha  occ. eigenvalues --  -10.57789 -10.57505 -10.57420 -10.52559 -10.52554
 Alpha  occ. eigenvalues --  -10.52508 -10.52458 -10.52249  -1.19981  -1.16440
 Alpha  occ. eigenvalues --   -1.13570  -0.90613  -0.89493  -0.86595  -0.83972
 Alpha  occ. eigenvalues --   -0.75021  -0.73710  -0.72205  -0.69327  -0.65635
 Alpha  occ. eigenvalues --   -0.64781  -0.59856  -0.57551  -0.57338  -0.55041
 Alpha  occ. eigenvalues --   -0.54022  -0.52489  -0.52048  -0.50926  -0.49712
 Alpha  occ. eigenvalues --   -0.48267  -0.46872  -0.45381  -0.45330  -0.43878
 Alpha  occ. eigenvalues --   -0.42745  -0.41562  -0.40281  -0.39770  -0.39493
 Alpha  occ. eigenvalues --   -0.38620  -0.37368  -0.37328  -0.34601  -0.32937
 Alpha  occ. eigenvalues --   -0.32075
 Alpha virt. eigenvalues --    0.00483   0.01270   0.01333   0.01587   0.02589
 Alpha virt. eigenvalues --    0.02869   0.02948   0.04112   0.04172   0.04746
 Alpha virt. eigenvalues --    0.04892   0.05159   0.06025   0.06112   0.07456

 Mulliken charges:
               1
     1  C   -0.411717
     2  C   -0.358283
     3  C   -0.385665
     4  O   -0.398376
     5  O   -0.396699
     6  C   -0.090356
     7  O   -0.425301
     8  C   -0.384808
     9  C   -0.244245
    10  C    0.059401
    11  C   -0.129252
    12  C   -0.075112
    13  C   -0.343446
    14  H    0.205239
    15  H    0.175735
    16  H    0.236612
    17  H    0.250104
    18  H    0.170854
    19  H    0.179503
    20  H    0.143615
    21  H    0.201084
    22  H    0.165250
    23  H    0.180381
    24  H    0.204221
    25  H    0.182763
    26  H    0.286288
    27  H    0.210915
    28  H    0.143813
    29  H    0.267221
    30  H    0.201730
    31  H    0.178530
 Sum of Mulliken charges =  -0.00000

 Dipole moment (field-independent basis, Debye):
    X=             -0.9957    Y=              0.6690    Z=              3.2769  Tot=              3.4896
 Quadrupole moment (field-independent basis, Debye-Ang):
   XX=            -64.8502   YY=            -84.5961   ZZ=            -80.3634
   XY=              7.9815   XZ=             -1.4079   YZ=              0.2884

  Exact polarizability: 188.969   2.641 172.483  -1.459   0.525 166.486
 Approx polarizability: 148.799   1.682 142.734  -0.942   0.742 141.110

 ******    1 imaginary frequencies (negative Signs) ******

                      1                      2                      3
                      A                      A                      A
 Frequencies --     -7.4038                62.8447                82.9557
 Red. masses --      3.6325                 3.7830                 3.8266
 Frc consts  --      0.0001                 0.0088                 0.0155
 IR Inten    --      5.2792                 0.3262                 1.9697

                      4                      5                      6
                      A                      A                      A
 Frequencies --    165.3840               204.7608               256.7714
 Red. masses --      2.8217                 3.4928                 2.1993
 Frc consts  --      0.0455                 0.0863                 0.0854
 IR Inten    --      1.6956                 3.1835                 0.5949

                      7                      8                      9
                      A                      A                      A
 Frequencies --    257.3311               273.4590               307.0916
 Red. masses --      2.4757                 2.7560                 3.5064
 Frc consts  --      0.0966                 0.1214                 0.1948
 IR Inten    --     14.6680                 2.3547                 0.8139

                     10                     11                     12
                      A                      A                      A
 Frequencies --    361.2025               382.2548               436.5071
 Red. masses --      2.0870                 2.6292                 3.6803
 Frc consts  --      0.1604                 0.2263                 0.4132
 IR Inten    --      3.6923                26.0468                 2.6197

                     13                     14                     15
                      A                      A                      A
 Frequencies --    452.4617               469.5669               486.8602
 Red. masses --      3.5843                 2.8417                 2.5773
 Frc consts  --      0.4323                 0.3692                 0.3599
 IR Inten    --      3.4411                 1.8990                 0.5457

                     16                     17                     18
                      A                      A                      A
 Frequencies --    526.1483               553.1188               606.2781
 Red. masses --      2.3451                 2.1721                 2.6753
 Frc consts  --      0.3825                 0.3915                 0.5794
 IR Inten    --      2.7768                15.4384                 1.4173

                     19                     20                     21
                      A                      A                      A
 Frequencies --    645.4815               829.4544               833.0665
 Red. masses --      2.9691                 2.1487                 1.8340
 Frc consts  --      0.7289                 0.8710                 0.7499
 IR Inten    --     10.1972                 1.7536                12.3032

                     22                     23                     24
                      A                      A                      A
 Frequencies --    863.0445               877.9021               882.7902
 Red. masses --      1.9475                 1.4216                 1.8927
 Frc consts  --      0.8547                 0.6455                 0.8690
 IR Inten    --     17.4303                14.8906                 9.4652

                     25                     26                     27
                      A                      A                      A
 Frequencies --    899.8691               930.2800               942.0982
 Red. masses --      2.4070                 2.4249                 2.2158
 Frc consts  --      1.1484                 1.2364                 1.1587
 IR Inten    --     19.0191                41.5176                48.0894

                     28                     29                     30
                      A                      A                      A
 Frequencies --    958.6930               987.5500               995.6071
 Red. masses --      2.1581                 1.5584                 1.9093
 Frc consts  --      1.1686                 0.8954                 1.1151
 IR Inten    --     21.6304                16.0524                33.5194

                     31                     32                     33
                      A                      A                      A
 Frequencies --   1005.6279              1050.8641              1055.6534
 Red. masses --      1.9447                 1.8663                 1.5608
 Frc consts  --      1.1587                 1.2143                 1.0248
 IR Inten    --     20.2607                31.7366               108.4676

                     34                     35                     36
                      A                      A                      A
 Frequencies --   1072.5522              1095.9389              1115.9844
 Red. masses --      2.8275                 2.3867                 3.9862
 Frc consts  --      1.9164                 1.6889                 2.9250
 IR Inten    --     25.7453                56.9828               289.3732

                     37                     38                     39
                      A                      A                      A
 Frequencies --   1143.0500              1155.5865              1176.1573
 Red. masses --      2.5411                 3.0660                 2.1548
 Frc consts  --      1.9561                 2.4123                 1.7562
 IR Inten    --     75.7542               128.8483                32.9034

                     40                     41                     42
                      A                      A                      A
 Frequencies --   1184.7361              1203.4183              1216.9110
 Red. masses --      2.3949                 1.4937                 1.6655
 Frc consts  --      1.9805                 1.2745                 1.4532
 IR Inten    --     15.8754                10.1357               196.4324

                     43                     44                     45
                      A                      A                      A
 Frequencies --   1224.6008              1238.3310              1248.0084
 Red. masses --      2.6777                 1.7057                 1.5447
 Frc consts  --      2.3660                 1.5411                 1.4175
 IR Inten    --    125.8835                48.6129                15.1844

                     46                     47                     48
                      A                      A                      A
 Frequencies --   1278.9168              1304.6720              1314.3025
 Red. masses --      1.2318                 1.1521                 1.1997
 Frc consts  --      1.1870                 1.1554                 1.2210
 IR Inten    --      4.2522                22.3418                29.4958

                     49                     50                     51
                      A                      A                      A
 Frequencies --   1338.5775              1342.2524              1352.0935
 Red. masses --      1.3234                 1.2256                 1.3097
 Frc consts  --      1.3971                 1.3009                 1.4107
 IR Inten    --      4.8473                 8.2899                 5.8054

                     52                     53                     54
                      A                      A                      A
 Frequencies --   1361.2281              1367.4097              1383.7402
 Red. masses --      1.2616                 1.4109                 1.4458
 Frc consts  --      1.3774                 1.5544                 1.6311
 IR Inten    --      6.3534                 0.3962                 2.2945

                     55                     56                     57
                      A                      A                      A
 Frequencies --   1385.3864              1396.2513              1401.6190
 Red. masses --      1.5119                 1.2901                 1.5081
 Frc consts  --      1.7097                 1.4819                 1.7456
 IR Inten    --      4.3721                31.2741                15.3830

                     58                     59                     60
                      A                      A                      A
 Frequencies --   1412.6601              1419.6177              1431.5625
 Red. masses --      1.3678                 1.3172                 1.4202
 Frc consts  --      1.6082                 1.5641                 1.7149
 IR Inten    --     10.3088                10.0692                 2.3414

                     61                     62                     63
                      A                      A                      A
 Frequencies --   1447.3175              1471.6457              1472.6265
 Red. masses --      1.4855                 1.1098                 1.0955
 Frc consts  --      1.8334                 1.4161                 1.3997
 IR Inten    --     56.1370                 4.9201                 8.4643

                     64                     65                     66
                      A                      A                      A
 Frequencies --   1474.0763              1489.0425              1490.0599
 Red. masses --      1.1101                 1.1178                 1.1274
 Frc consts  --      1.4212                 1.4603                 1.4748
 IR Inten    --      8.9492                10.2922                27.2901

                     67                     68                     69
                      A                      A                      A
 Frequencies --   1500.8205              1502.8989              1511.7270
 Red. masses --      1.0858                 1.0962                 1.0961
 Frc consts  --      1.4410                 1.4588                 1.4758
 IR Inten    --      3.3957                 5.2204                 7.5383

                     70                     71                     72
                      A                      A                      A
 Frequencies --   3034.0747              3035.0701              3038.3113
 Red. masses --      1.0700                 1.0699                 1.0696
 Frc consts  --      5.8035                 5.8067                 5.8174
 IR Inten    --     50.3276                39.8507                71.8500

                     73                     74                     75
                      A                      A                      A
 Frequencies --   3053.4164              3059.7382              3060.6241
 Red. masses --      1.0808                 1.0714                 1.0689
 Frc consts  --      5.9369                 5.9096                 5.8995
 IR Inten    --     69.5697                 9.6092                24.6585

                     76                     77                     78
                      A                      A                      A
 Frequencies --   3068.0885              3068.9965              3074.0675
 Red. masses --      1.0751                 1.0615                 1.0625
 Frc consts  --      5.9625                 5.8908                 5.9157
 IR Inten    --     87.6593                42.7845                46.9572

                     79                     80                     81
                      A                      A                      A
 Frequencies --   3074.5297              3116.8742              3118.4527
 Red. masses --      1.0617                 1.1009                 1.0985
 Frc consts  --      5.9131                 6.3013                 6.2940
 IR Inten    --     49.1901                46.3569                40.7122

                     82                     83                     84
                      A                      A                      A
 Frequencies --   3122.3747              3125.3498              3130.3180
 Red. masses --      1.1000                 1.1026                 1.1040
 Frc consts  --      6.3183                 6.3454                 6.3741
 IR Inten    --     56.8825                53.3847                52.7815

                     85                     86                     87
                      A                      A                      A
 Frequencies --   3140.3954              3141.1904              3143.9392
 Red. masses --      1.0965                 1.0957                 1.0978
 Frc consts  --      6.3711                 6.3701                 6.3935
 IR Inten    --     43.6825                39.1692                26.7706

 - Thermochemistry -
 -------------------
 Temperature   298.150 Kelvin.  Pressure   1.00000 Atm.
 Atom     1 has atomic number  6 and mass  12.00000

 Molecular mass:   186.12559 amu.
 Principal axes and moments of inertia in atomic units:
                           1         2         3
     Eigenvalues --   875.968874615.772495084.53876
           X            0.99996   0.00835  -0.00317
           Y           -0.00834   0.99996   0.00363
           Z            0.00320  -0.00360   0.99999
 This molecule is an asymmetric top.
 Rotational symmetry number  1.
 Warning -- assumption of classical behavior for rotation
           may cause significant error
 Rotational temperatures (Kelvin)      0.09888     0.01876     0.01703
 Rotational constants (GHZ):           2.06028     0.39099     0.35495
    1 imaginary frequencies ignored.
 Zero-point vibrational energy     736747.5 (Joules/Mol)
                                  176.08689 (Kcal/Mol)
 Warning -- explicit consideration of  17 degrees of freedom as
           vibrations may cause significant error
 Vibrational temperatures:     90.42   119.35   237.95   294.61   369.44
          (Kelvin)            370.24   393.45   441.84   519.69   549.98
                              628.04   650.99   675.60   700.48   757.01
                              795.81   872.30   928.70  1193.40  1198.60
                             1241.73  1263.11  1270.14  1294.71  1338.47
                             1355.47  1379.35  1420.86  1432.46  1446.87
                             1511.96  1518.85  1543.16  1576.81  1605.65
                             1644.59  1662.63  1692.23  1704.57  1731.45
                             1750.86  1761.93  1781.68  1795.61  1840.08
                             1877.13  1890.99  1925.91  1931.20  1945.36
                             1958.50  1967.40  1990.89  1993.26  2008.89
                             2016.62  2032.50  2042.51  2059.70  2082.37
                             2117.37  2118.78  2120.87  2142.40  2143.86
                             2159.35  2162.34  2175.04  4365.36  4366.79
                             4371.45  4393.19  4402.28  4403.56  4414.30
                             4415.60  4422.90  4423.56  4484.49  4486.76
                             4492.40  4496.68  4503.83  4518.33  4519.47
                             4523.43

 Zero-point correction=                           0.280612 (Hartree/Particle)
 Thermal correction to Energy=                    0.291480
 Thermal correction to Enthalpy=                  0.292424
 Thermal correction to Gibbs Free Energy=         0.243981
 Sum of electronic and zero-point Energies=           -617.223126
 Sum of electronic and thermal Energies=              -617.212258
 Sum of electronic and thermal Enthalpies=            -617.211314
 Sum of electronic and thermal Free Energies=         -617.259757

                     E (Thermal)             CV                S
                      KCal/Mol        Cal/Mol-Kelvin    Cal/Mol-Kelvin
 Total                  182.906             44.836            101.956
 Electronic               0.000              0.000              0.000
 Translational            0.889              2.981             41.570
 Rotational               0.889              2.981             31.397
 Vibrational            181.129             38.875             28.989
 Vibration     1          0.597              1.972              4.366
 Vibration     2          0.600              1.961              3.820
 Vibration     3          0.624              1.885              2.487
 Vibration     4          0.640              1.833              2.090
 Vibration     5          0.666              1.751              1.684
 Vibration     6          0.667              1.750              1.680
 Vibration     7          0.676              1.722              1.574
 Vibration     8          0.697              1.660              1.378
 Vibration     9          0.735              1.552              1.117
 Vibration    10          0.752              1.508              1.030
 Vibration    11          0.797              1.391              0.838
 Vibration    12          0.811              1.355              0.788
 Vibration    13          0.827              1.318              0.739
 Vibration    14          0.843              1.279              0.692
 Vibration    15          0.881              1.192              0.596
 Vibration    16          0.908              1.133              0.538
 Vibration    17          0.965              1.019              0.439

 Optimization completed.
    -- Stationary point found.
 Normal termination of Gaussian 16 at Sun Mar 10 03:41:14 2019.
