 Gaussian 16, Revision B.01,
 Gaussian 16:  ES64L-G16RevB.01 20-Dec-2017

 ----------------------------------------------------------------------
 #M062X/6-311++G(2d,2p) opt=ModRedundant freq=noraman SCRF=(SMD,solvent
 =water)
 ----------------------------------------------------------------------

 --------------------------------
 4c1_b1_4e_4c1_PSI.inp_extract_20
 --------------------------------
 Symbolic Z-matrix:
 Charge =  0 Multiplicity = 1

 SCF Done:  E(RM062X) =  -617.503451891     A.U. after   12 cycles
 SCF Done:  E(RM062X) =  -617.505085355     A.U. after   10 cycles
 SCF Done:  E(RM062X) =  -617.505334660     A.U. after   10 cycles
 SCF Done:  E(RM062X) =  -617.505429728     A.U. after    9 cycles
 SCF Done:  E(RM062X) =  -617.505434507     A.U. after    8 cycles
 SCF Done:  E(RM062X) =  -617.505434909     A.U. after    7 cycles
 Optimization completed.
    -- Stationary point found.
 Normal termination of Gaussian 16 at Sun Mar 10 05:20:02 2019.

 ----------------------------------------------------------------------
 #N Geom=AllCheck Guess=TCheck SCRF=Check GenChk RM062X/6-311++G(2d,2p)
  Freq
 ----------------------------------------------------------------------

 Structure from the checkpoint file:  "4c1_b1_4e_4c1_PSI.inp_extract_20.chk"
 --------------------------------
 4c1_b1_4e_4c1_PSI.inp_extract_20
 --------------------------------
 Charge =  0 Multiplicity = 1

                         Standard orientation:
 ---------------------------------------------------------------------
 Center     Atomic      Atomic             Coordinates (Angstroms)
 Number     Number       Type             X           Y           Z
 ---------------------------------------------------------------------
      1          6           0        3.640307   -0.571949    0.577839
      2          6           0       -2.279735   -1.173849   -0.589902
      3          6           0       -2.808378    1.308296    0.705203
      4          8           0       -3.586404   -0.823385   -0.165445
      5          8           0        1.389246    0.664387   -0.692232
      6          6           0        2.528171    1.456265   -0.347041
      7          8           0        0.026524   -1.072137   -0.129731
      8          6           0        3.794680    0.619494   -0.364446
      9          6           0       -1.370110    0.966098    0.310945
     10          6           0        1.177936   -0.376713    0.249147
     11          6           0       -3.788079    0.589701   -0.204740
     12          6           0       -1.230055   -0.549760    0.316363
     13          6           0        2.353195   -1.332418    0.257665
     14          1           0        4.498990   -1.238243    0.507022
     15          1           0        3.594910   -0.210444    1.608616
     16          1           0       -2.113826   -0.834744   -1.619210
     17          1           0       -2.211674   -2.259720   -0.559093
     18          1           0       -2.996332    1.008920    1.738528
     19          1           0       -2.975434    2.383108    0.635739
     20          1           0        2.371706    1.890636    0.647227
     21          1           0        2.566045    2.264183   -1.074151
     22          1           0        3.971609    0.268716   -1.383666
     23          1           0        4.641263    1.242152   -0.073826
     24          1           0       -1.170694    1.341839   -0.694964
     25          1           0       -0.661356    1.434073    0.992719
     26          1           0        1.046119    0.071319    1.242630
     27          1           0       -4.817521    0.757567    0.104046
     28          1           0       -3.669835    0.936301   -1.237464
     29          1           0       -1.398281   -0.907385    1.338637
     30          1           0        2.416826   -1.793976   -0.730691
     31          1           0        2.164971   -2.116224    0.990961
 ---------------------------------------------------------------------

 SCF Done:  E(RM062X) =  -617.505434909     A.U. after    1 cycles

 The electronic state is 1-A.
 Alpha  occ. eigenvalues --  -19.63757 -19.63173 -19.62859 -10.63289 -10.58509
 Alpha  occ. eigenvalues --  -10.57637 -10.57488 -10.57425 -10.52599 -10.52561
 Alpha  occ. eigenvalues --  -10.52522 -10.52404 -10.52227  -1.19955  -1.16429
 Alpha  occ. eigenvalues --   -1.13682  -0.90542  -0.89395  -0.87098  -0.83621
 Alpha  occ. eigenvalues --   -0.74724  -0.73504  -0.72223  -0.69547  -0.65500
 Alpha  occ. eigenvalues --   -0.64983  -0.59473  -0.58016  -0.56283  -0.55327
 Alpha  occ. eigenvalues --   -0.54458  -0.52679  -0.51876  -0.50948  -0.49718
 Alpha  occ. eigenvalues --   -0.47818  -0.46572  -0.45894  -0.45364  -0.44436
 Alpha  occ. eigenvalues --   -0.42828  -0.41037  -0.40333  -0.39742  -0.39316
 Alpha  occ. eigenvalues --   -0.38639  -0.37393  -0.36870  -0.34701  -0.32836
 Alpha  occ. eigenvalues --   -0.32234
 Alpha virt. eigenvalues --    0.00513   0.01261   0.01351   0.01507   0.02640
 Alpha virt. eigenvalues --    0.02942   0.03010   0.03959   0.04104   0.04762
 Alpha virt. eigenvalues --    0.05032   0.05407   0.05939   0.06239   0.07251

 Mulliken charges:
               1
     1  C   -0.401272
     2  C   -0.262218
     3  C   -0.485816
     4  O   -0.395116
     5  O   -0.408621
     6  C   -0.116973
     7  O   -0.408581
     8  C   -0.388239
     9  C   -0.183999
    10  C    0.147412
    11  C   -0.230324
    12  C   -0.130855
    13  C   -0.276721
    14  H    0.201150
    15  H    0.172507
    16  H    0.200783
    17  H    0.213811
    18  H    0.177926
    19  H    0.176264
    20  H    0.157100
    21  H    0.198714
    22  H    0.162858
    23  H    0.182052
    24  H    0.246648
    25  H    0.173875
    26  H    0.254661
    27  H    0.221830
    28  H    0.158397
    29  H    0.269250
    30  H    0.197777
    31  H    0.175722
 Sum of Mulliken charges =  -0.00000

 Dipole moment (field-independent basis, Debye):
    X=              2.8106    Y=              3.0714    Z=              2.3807  Tot=              4.7959
 Quadrupole moment (field-independent basis, Debye-Ang):
   XX=            -76.4047   YY=            -79.1429   ZZ=            -79.6417
   XY=             -6.3222   XZ=              2.3921   YZ=              0.0043

  Exact polarizability: 185.657   0.184 174.955  -1.757   0.364 167.950
 Approx polarizability: 146.985   0.817 144.216  -1.600   0.038 141.828

                      1                      2                      3
                      A                      A                      A
 Frequencies --     31.6671                70.8430                81.4868
 Red. masses --      3.9739                 3.3776                 3.9134
 Frc consts  --      0.0023                 0.0100                 0.0153
 IR Inten    --      1.2643                 3.3230                 1.1006

                      4                      5                      6
                      A                      A                      A
 Frequencies --    157.3524               202.7267               251.8734
 Red. masses --      2.8693                 3.2882                 2.6225
 Frc consts  --      0.0419                 0.0796                 0.0980
 IR Inten    --      2.5750                 5.1142                 8.1190

                      7                      8                      9
                      A                      A                      A
 Frequencies --    257.2032               272.2875               309.7902
 Red. masses --      2.0680                 3.3471                 3.0254
 Frc consts  --      0.0806                 0.1462                 0.1711
 IR Inten    --      6.1839                 1.7852                 0.3606

                     10                     11                     12
                      A                      A                      A
 Frequencies --    357.0207               384.8652               436.6564
 Red. masses --      2.0725                 2.4477                 3.9093
 Frc consts  --      0.1556                 0.2136                 0.4392
 IR Inten    --     11.3443                15.9574                 3.7448

                     13                     14                     15
                      A                      A                      A
 Frequencies --    454.7769               461.8165               489.4774
 Red. masses --      3.4316                 2.4950                 2.9356
 Frc consts  --      0.4182                 0.3135                 0.4144
 IR Inten    --      6.1164                 0.4467                 1.9353

                     16                     17                     18
                      A                      A                      A
 Frequencies --    525.9364               542.0614               605.1365
 Red. masses --      2.4843                 2.2781                 2.5020
 Frc consts  --      0.4049                 0.3944                 0.5398
 IR Inten    --      0.3085                 9.5955                11.6549

                     19                     20                     21
                      A                      A                      A
 Frequencies --    642.5051               825.4125               835.6638
 Red. masses --      2.8620                 2.1755                 1.7447
 Frc consts  --      0.6961                 0.8733                 0.7179
 IR Inten    --      6.6838                 2.3331                 7.3861

                     22                     23                     24
                      A                      A                      A
 Frequencies --    862.6620               882.3253               883.6498
 Red. masses --      1.9612                 1.5552                 1.6766
 Frc consts  --      0.8599                 0.7133                 0.7713
 IR Inten    --     15.0662                14.1884                14.7055

                     25                     26                     27
                      A                      A                      A
 Frequencies --    900.3754               936.2144               946.8140
 Red. masses --      2.3450                 2.4295                 2.1264
 Frc consts  --      1.1201                 1.2546                 1.1231
 IR Inten    --     11.7395                40.1997                63.9050

                     28                     29                     30
                      A                      A                      A
 Frequencies --    960.2541               985.3907              1002.9383
 Red. masses --      2.1284                 1.8990                 1.5653
 Frc consts  --      1.1563                 1.0864                 0.9277
 IR Inten    --      4.7420                43.8497                 6.5308

                     31                     32                     33
                      A                      A                      A
 Frequencies --   1007.9020              1059.4920              1061.8165
 Red. masses --      2.1709                 1.5589                 1.6764
 Frc consts  --      1.2994                 1.0310                 1.1136
 IR Inten    --      7.9486                97.1419                 1.6605

                     34                     35                     36
                      A                      A                      A
 Frequencies --   1088.9564              1102.3905              1123.8130
 Red. masses --      3.0613                 2.8560                 4.0263
 Frc consts  --      2.1388                 2.0449                 2.9960
 IR Inten    --     70.9641                43.9193               286.8127

                     37                     38                     39
                      A                      A                      A
 Frequencies --   1150.4858              1171.7118              1179.1611
 Red. masses --      2.2654                 2.2687                 2.2819
 Frc consts  --      1.7666                 1.8351                 1.8693
 IR Inten    --      8.2781               135.8983                 4.0773

                     40                     41                     42
                      A                      A                      A
 Frequencies --   1185.1624              1203.3171              1204.7883
 Red. masses --      2.3440                 1.4963                 1.8221
 Frc consts  --      1.9399                 1.2765                 1.5583
 IR Inten    --     14.2028                21.4443               113.3769

                     43                     44                     45
                      A                      A                      A
 Frequencies --   1232.4011              1240.6504              1250.4409
 Red. masses --      3.0702                 1.7024                 1.5492
 Frc consts  --      2.7474                 1.5438                 1.4272
 IR Inten    --    311.9760                49.2026                22.8032

                     46                     47                     48
                      A                      A                      A
 Frequencies --   1279.2728              1300.7012              1317.1846
 Red. masses --      1.2359                 1.1664                 1.2098
 Frc consts  --      1.1917                 1.1627                 1.2367
 IR Inten    --      3.0841                11.6581                31.4669

                     49                     50                     51
                      A                      A                      A
 Frequencies --   1331.7115              1344.6444              1354.9382
 Red. masses --      1.2906                 1.2569                 1.2162
 Frc consts  --      1.3485                 1.3390                 1.3155
 IR Inten    --     12.4208                 2.9898                15.2656

                     52                     53                     54
                      A                      A                      A
 Frequencies --   1357.6340              1368.1133              1380.7002
 Red. masses --      1.3431                 1.4276                 1.4391
 Frc consts  --      1.4586                 1.5744                 1.6164
 IR Inten    --      6.6314                 1.1576                 9.8663

                     55                     56                     57
                      A                      A                      A
 Frequencies --   1385.9438              1393.1705              1410.6625
 Red. masses --      1.5060                 1.2546                 1.4556
 Frc consts  --      1.7044                 1.4347                 1.7066
 IR Inten    --      6.5325                20.9420                16.1035

                     58                     59                     60
                      A                      A                      A
 Frequencies --   1415.7065              1422.8509              1433.0545
 Red. masses --      1.3950                 1.3501                 1.4664
 Frc consts  --      1.6473                 1.6104                 1.7743
 IR Inten    --      4.4458                14.2661                11.3061

                     61                     62                     63
                      A                      A                      A
 Frequencies --   1450.2487              1469.7596              1470.5048
 Red. masses --      1.4727                 1.1143                 1.0987
 Frc consts  --      1.8250                 1.4182                 1.3998
 IR Inten    --     53.2019                 3.2175                 8.7692

                     64                     65                     66
                      A                      A                      A
 Frequencies --   1472.7858              1487.3744              1489.9943
 Red. masses --      1.1218                 1.1344                 1.1253
 Frc consts  --      1.4337                 1.4786                 1.4719
 IR Inten    --     14.2081                12.2667                26.8615

                     67                     68                     69
                      A                      A                      A
 Frequencies --   1497.6893              1503.2781              1505.5409
 Red. masses --      1.0850                 1.0971                 1.1044
 Frc consts  --      1.4340                 1.4608                 1.4749
 IR Inten    --      1.1187                 5.9648                 8.6273

                     70                     71                     72
                      A                      A                      A
 Frequencies --   3021.3203              3029.9115              3034.2619
 Red. masses --      1.0831                 1.0754                 1.0704
 Frc consts  --      5.8254                 5.8168                 5.8062
 IR Inten    --     65.0713                 9.9987                75.1239

                     73                     74                     75
                      A                      A                      A
 Frequencies --   3038.4043              3039.5491              3061.1035
 Red. masses --      1.0699                 1.0753                 1.0686
 Frc consts  --      5.8196                 5.8530                 5.8996
 IR Inten    --    104.5070                83.6159                24.1848

                     76                     77                     78
                      A                      A                      A
 Frequencies --   3069.9678              3071.6973              3072.2956
 Red. masses --      1.0619                 1.0616                 1.0650
 Frc consts  --      5.8964                 5.9015                 5.9226
 IR Inten    --     32.6672                48.0089                21.2047

                     79                     80                     81
                      A                      A                      A
 Frequencies --   3075.6031              3119.0363              3122.2602
 Red. masses --      1.0604                 1.0967                 1.1019
 Frc consts  --      5.9101                 6.2859                 6.3288
 IR Inten    --     60.7172                39.8912                59.9349

                     82                     83                     84
                      A                      A                      A
 Frequencies --   3124.5251              3128.7039              3130.4050
 Red. masses --      1.0998                 1.1035                 1.1039
 Frc consts  --      6.3259                 6.3644                 6.3734
 IR Inten    --     36.3464                40.7105                67.3387

                     85                     86                     87
                      A                      A                      A
 Frequencies --   3138.2223              3141.9640              3142.0979
 Red. masses --      1.0968                 1.0968                 1.0958
 Frc consts  --      6.3643                 6.3793                 6.3743
 IR Inten    --     38.5335                53.9053                26.4779

 - Thermochemistry -
 -------------------
 Temperature   298.150 Kelvin.  Pressure   1.00000 Atm.
 Atom     1 has atomic number  6 and mass  12.00000

 Molecular mass:   186.12559 amu.
 Principal axes and moments of inertia in atomic units:
                           1         2         3
     Eigenvalues --   851.162704684.947115174.37789
           X            0.99996  -0.00888   0.00211
           Y            0.00887   0.99994   0.00563
           Z           -0.00216  -0.00561   0.99998
 This molecule is an asymmetric top.
 Rotational symmetry number  1.
 Warning -- assumption of classical behavior for rotation
           may cause significant error
 Rotational temperatures (Kelvin)      0.10176     0.01849     0.01674
 Rotational constants (GHZ):           2.12032     0.38522     0.34878
 Zero-point vibrational energy     737046.0 (Joules/Mol)
                                  176.15822 (Kcal/Mol)
 Warning -- explicit consideration of  18 degrees of freedom as
           vibrations may cause significant error
 Vibrational temperatures:     45.56   101.93   117.24   226.39   291.68
          (Kelvin)            362.39   370.06   391.76   445.72   513.67
                              553.74   628.25   654.32   664.45   704.25
                              756.71   779.91   870.66   924.42  1187.58
                             1202.33  1241.18  1269.47  1271.37  1295.44
                             1347.00  1362.25  1381.59  1417.76  1443.00
                             1450.15  1524.37  1527.72  1566.77  1586.09
                             1616.92  1655.29  1685.83  1696.55  1705.18
                             1731.30  1733.42  1773.15  1785.02  1799.11
                             1840.59  1871.42  1895.13  1916.04  1934.64
                             1949.45  1953.33  1968.41  1986.52  1994.06
                             2004.46  2029.63  2036.89  2047.17  2061.85
                             2086.58  2114.66  2115.73  2119.01  2140.00
                             2143.77  2154.84  2162.88  2166.14  4347.01
                             4359.37  4365.63  4371.59  4373.23  4404.25
                             4417.00  4419.49  4420.35  4425.11  4487.60
                             4492.24  4495.49  4501.51  4503.95  4515.20
                             4520.59  4520.78

 Zero-point correction=                           0.280726 (Hartree/Particle)
 Thermal correction to Energy=                    0.292479
 Thermal correction to Enthalpy=                  0.293423
 Thermal correction to Gibbs Free Energy=         0.242280
 Sum of electronic and zero-point Energies=           -617.224709
 Sum of electronic and thermal Energies=              -617.212956
 Sum of electronic and thermal Enthalpies=            -617.212012
 Sum of electronic and thermal Free Energies=         -617.263154

                     E (Thermal)             CV                S
                      KCal/Mol        Cal/Mol-Kelvin    Cal/Mol-Kelvin
 Total                  183.533             46.790            107.639
 Electronic               0.000              0.000              0.000
 Translational            0.889              2.981             41.570
 Rotational               0.889              2.981             31.401
 Vibrational            181.756             40.828             34.668
 Vibration     1          0.594              1.983              5.722
 Vibration     2          0.598              1.968              4.130
 Vibration     3          0.600              1.962              3.855
 Vibration     4          0.621              1.894              2.581
 Vibration     5          0.639              1.836              2.108
 Vibration     6          0.664              1.760              1.717
 Vibration     7          0.667              1.751              1.681
 Vibration     8          0.675              1.724              1.582
 Vibration     9          0.699              1.655              1.363
 Vibration    10          0.732              1.561              1.135
 Vibration    11          0.754              1.502              1.020
 Vibration    12          0.797              1.390              0.837
 Vibration    13          0.813              1.350              0.781
 Vibration    14          0.820              1.335              0.761
 Vibration    15          0.845              1.273              0.685
 Vibration    16          0.881              1.193              0.596
 Vibration    17          0.897              1.157              0.561
 Vibration    18          0.964              1.021              0.441

 Optimization completed.
    -- Stationary point found.
 Normal termination of Gaussian 16 at Sun Mar 10 06:18:03 2019.
