 Gaussian 16, Revision B.01,
 Gaussian 16:  ES64L-G16RevB.01 20-Dec-2017

 ----------------------------------------------------------------------
 #M062X/6-311++G(2d,2p) opt=ModRedundant freq=noraman SCRF=(SMD,solvent
 =water)
 ----------------------------------------------------------------------

 --------------------------------
 4c1_b1_4e_4c1_PSI.inp_extract_13
 --------------------------------
 Symbolic Z-matrix:
 Charge =  0 Multiplicity = 1

 SCF Done:  E(RM062X) =  -617.503576649     A.U. after   12 cycles
 SCF Done:  E(RM062X) =  -617.505288185     A.U. after   11 cycles
 SCF Done:  E(RM062X) =  -617.505522311     A.U. after   11 cycles
 SCF Done:  E(RM062X) =  -617.505585947     A.U. after   10 cycles
 SCF Done:  E(RM062X) =  -617.505587412     A.U. after    9 cycles
 SCF Done:  E(RM062X) =  -617.505587526     A.U. after    7 cycles
 SCF Done:  E(RM062X) =  -617.505587480     A.U. after    7 cycles
 Optimization completed.
    -- Stationary point found.
 Normal termination of Gaussian 16 at Sun Mar 10 04:05:19 2019.

 ----------------------------------------------------------------------
 #N Geom=AllCheck Guess=TCheck SCRF=Check GenChk RM062X/6-311++G(2d,2p)
  Freq
 ----------------------------------------------------------------------

 Structure from the checkpoint file:  "4c1_b1_4e_4c1_PSI.inp_extract_13.chk"
 --------------------------------
 4c1_b1_4e_4c1_PSI.inp_extract_13
 --------------------------------
 Charge =  0 Multiplicity = 1

                         Standard orientation:
 ---------------------------------------------------------------------
 Center     Atomic      Atomic             Coordinates (Angstroms)
 Number     Number       Type             X           Y           Z
 ---------------------------------------------------------------------
      1          6           0       -3.320022    0.889166    0.637510
      2          6           0        1.556838   -1.054479   -0.476951
      3          6           0        3.277080    0.962948    0.602598
      4          8           0        2.945826   -1.278375   -0.276560
      5          8           0       -1.470012   -0.990624   -0.486450
      6          6           0       -2.452337   -1.438806    0.450049
      7          8           0       -0.062033    0.658433   -1.146791
      8          6           0       -3.695616   -0.569698    0.389415
      9          6           0        1.806117    1.292873    0.342784
     10          6           0       -1.037821    0.333889   -0.197053
     11          6           0        3.444461   -0.528377    0.830831
     12          6           0        1.304237    0.416693   -0.796221
     13          6           0       -2.191417    1.308382   -0.304511
     14          1           0       -4.182369    1.541359    0.505791
     15          1           0       -2.983406    1.001830    1.671614
     16          1           0        1.004835   -1.348975    0.423040
     17          1           0        1.244925   -1.686760   -1.305989
     18          1           0        3.883617    1.261004   -0.255229
     19          1           0        3.644203    1.504865    1.474160
     20          1           0       -2.021142   -1.416761    1.457662
     21          1           0       -2.667871   -2.472733    0.190218
     22          1           0       -4.152153   -0.675080   -0.597348
     23          1           0       -4.415372   -0.920437    1.129580
     24          1           0        1.232943    1.094902    1.250570
     25          1           0        1.678057    2.344568    0.085099
     26          1           0       -0.624095    0.340924    0.816851
     27          1           0        4.492591   -0.800737    0.934693
     28          1           0        2.910445   -0.835916    1.737128
     29          1           0        1.859822    0.662782   -1.702117
     30          1           0       -2.536425    1.305986   -1.341319
     31          1           0       -1.827967    2.308147   -0.066713
 ---------------------------------------------------------------------

 SCF Done:  E(RM062X) =  -617.505587480     A.U. after    1 cycles

 The electronic state is 1-A.
 Alpha  occ. eigenvalues --  -19.63776 -19.63108 -19.62861 -10.63246 -10.58542
 Alpha  occ. eigenvalues --  -10.57530 -10.57465 -10.57429 -10.52611 -10.52560
 Alpha  occ. eigenvalues --  -10.52528 -10.52427 -10.52228  -1.19922  -1.16297
 Alpha  occ. eigenvalues --   -1.13624  -0.90346  -0.89514  -0.86737  -0.83862
 Alpha  occ. eigenvalues --   -0.74519  -0.73738  -0.72496  -0.69861  -0.65878
 Alpha  occ. eigenvalues --   -0.64479  -0.59468  -0.57318  -0.56724  -0.55517
 Alpha  occ. eigenvalues --   -0.54124  -0.52745  -0.51306  -0.50690  -0.49848
 Alpha  occ. eigenvalues --   -0.48280  -0.46998  -0.45664  -0.45271  -0.44352
 Alpha  occ. eigenvalues --   -0.42870  -0.41470  -0.40358  -0.39404  -0.39157
 Alpha  occ. eigenvalues --   -0.38561  -0.37730  -0.37162  -0.35284  -0.32680
 Alpha  occ. eigenvalues --   -0.31679
 Alpha virt. eigenvalues --    0.00448   0.01244   0.01320   0.01553   0.02613
 Alpha virt. eigenvalues --    0.02925   0.03086   0.03849   0.04139   0.04874
 Alpha virt. eigenvalues --    0.05081   0.05324   0.05916   0.06686   0.07507

 Mulliken charges:
               1
     1  C   -0.376219
     2  C   -0.254402
     3  C   -0.404698
     4  O   -0.394703
     5  O   -0.409017
     6  C   -0.119429
     7  O   -0.371463
     8  C   -0.366759
     9  C   -0.138632
    10  C    0.067311
    11  C   -0.200557
    12  C   -0.329029
    13  C   -0.250006
    14  H    0.197185
    15  H    0.176793
    16  H    0.236302
    17  H    0.225592
    18  H    0.181536
    19  H    0.171856
    20  H    0.146721
    21  H    0.206712
    22  H    0.164364
    23  H    0.181739
    24  H    0.187932
    25  H    0.184292
    26  H    0.284238
    27  H    0.222692
    28  H    0.149258
    29  H    0.266293
    30  H    0.202420
    31  H    0.161676
 Sum of Mulliken charges =  -0.00000

 Dipole moment (field-independent basis, Debye):
    X=             -1.4019    Y=              2.1492    Z=              4.8148  Tot=              5.4559
 Quadrupole moment (field-independent basis, Debye-Ang):
   XX=            -73.0359   YY=            -82.0447   ZZ=            -81.2166
   XY=              6.8525   XZ=              0.7598   YZ=             -1.4697

  Exact polarizability: 186.664   3.569 171.948   0.102  -0.684 168.675
 Approx polarizability: 148.358   2.376 141.184  -0.532   0.034 143.216

                      1                      2                      3
                      A                      A                      A
 Frequencies --     44.6966                63.9172                78.7791
 Red. masses --      3.4852                 4.2072                 3.1734
 Frc consts  --      0.0041                 0.0101                 0.0116
 IR Inten    --      0.5401                 1.0773                 1.0374

                      4                      5                      6
                      A                      A                      A
 Frequencies --    149.0859               220.8575               245.3167
 Red. masses --      2.8264                 3.2564                 2.2941
 Frc consts  --      0.0370                 0.0936                 0.0813
 IR Inten    --      1.2457                 0.5755                 3.1625

                      7                      8                      9
                      A                      A                      A
 Frequencies --    254.4842               276.5282               328.8665
 Red. masses --      2.0408                 3.4700                 2.5725
 Frc consts  --      0.0779                 0.1563                 0.1639
 IR Inten    --      9.4253                 7.3989                11.7795

                     10                     11                     12
                      A                      A                      A
 Frequencies --    368.5828               399.4416               423.6892
 Red. masses --      2.3374                 3.2109                 2.9209
 Frc consts  --      0.1871                 0.3018                 0.3089
 IR Inten    --      9.8441                 7.0584                 8.0225

                     13                     14                     15
                      A                      A                      A
 Frequencies --    446.5571               466.2654               484.8523
 Red. masses --      3.5810                 3.4501                 3.1300
 Frc consts  --      0.4207                 0.4419                 0.4335
 IR Inten    --      4.3335                 2.9539                 2.8784

                     16                     17                     18
                      A                      A                      A
 Frequencies --    524.1317               548.4166               592.4708
 Red. masses --      2.3983                 2.2258                 2.0402
 Frc consts  --      0.3882                 0.3944                 0.4220
 IR Inten    --      3.7369                 6.4082                 9.2177

                     19                     20                     21
                      A                      A                      A
 Frequencies --    652.3232               825.1486               832.5562
 Red. masses --      3.5349                 2.0840                 1.7885
 Frc consts  --      0.8862                 0.8360                 0.7304
 IR Inten    --      2.7157                 5.2145                 7.1688

                     22                     23                     24
                      A                      A                      A
 Frequencies --    862.4810               874.5780               880.4693
 Red. masses --      1.9370                 1.4072                 1.9984
 Frc consts  --      0.8490                 0.6342                 0.9128
 IR Inten    --     15.0251                 9.9859                11.6386

                     25                     26                     27
                      A                      A                      A
 Frequencies --    895.5275               930.7284               943.8207
 Red. masses --      2.3086                 2.4952                 2.3933
 Frc consts  --      1.0908                 1.2735                 1.2561
 IR Inten    --     16.8768                52.4586                69.7525

                     28                     29                     30
                      A                      A                      A
 Frequencies --    958.4609               985.8603               999.5368
 Red. masses --      2.1588                 1.5173                 1.6465
 Frc consts  --      1.1685                 0.8689                 0.9692
 IR Inten    --      7.9528                10.8965                43.0945

                     31                     32                     33
                      A                      A                      A
 Frequencies --   1005.0516              1050.0827              1054.9411
 Red. masses --      2.2568                 1.6783                 1.5541
 Frc consts  --      1.3432                 1.0904                 1.0190
 IR Inten    --     12.4125                26.7260                99.2139

                     34                     35                     36
                      A                      A                      A
 Frequencies --   1078.7514              1099.2370              1115.9471
 Red. masses --      3.1115                 2.4297                 4.2306
 Frc consts  --      2.1334                 1.7297                 3.1041
 IR Inten    --     30.2465                65.1540               296.6536

                     37                     38                     39
                      A                      A                      A
 Frequencies --   1145.0930              1150.1451              1166.7800
 Red. masses --      3.0709                 3.0452                 2.3574
 Frc consts  --      2.3724                 2.3734                 1.8909
 IR Inten    --     98.1177                90.4181                18.6616

                     40                     41                     42
                      A                      A                      A
 Frequencies --   1190.6574              1202.1414              1208.8634
 Red. masses --      2.1139                 1.5264                 2.5385
 Frc consts  --      1.7656                 1.2997                 2.1857
 IR Inten    --     18.4442                13.3199               286.4201

                     43                     44                     45
                      A                      A                      A
 Frequencies --   1218.4457              1238.0074              1247.0418
 Red. masses --      1.4804                 1.6271                 1.7254
 Frc consts  --      1.2949                 1.4693                 1.5809
 IR Inten    --      3.2074                34.0641                33.1852

                     46                     47                     48
                      A                      A                      A
 Frequencies --   1278.8938              1311.3716              1316.1493
 Red. masses --      1.2289                 1.1902                 1.1869
 Frc consts  --      1.1842                 1.2059                 1.2114
 IR Inten    --      4.5809                38.7285                18.7521

                     49                     50                     51
                      A                      A                      A
 Frequencies --   1336.6771              1343.2076              1349.5266
 Red. masses --      1.3360                 1.2715                 1.3217
 Frc consts  --      1.4064                 1.3516                 1.4182
 IR Inten    --     11.4418                 9.5123                 1.7558

                     52                     53                     54
                      A                      A                      A
 Frequencies --   1367.1294              1374.6524              1382.3411
 Red. masses --      1.4486                 1.3289                 1.4289
 Frc consts  --      1.5952                 1.4796                 1.6088
 IR Inten    --      0.4371                15.6554                 0.4931

                     55                     56                     57
                      A                      A                      A
 Frequencies --   1384.1341              1398.5740              1405.5664
 Red. masses --      1.4998                 1.3140                 1.3371
 Frc consts  --      1.6930                 1.5143                 1.5563
 IR Inten    --      3.4390                12.9777                 9.1373

                     58                     59                     60
                      A                      A                      A
 Frequencies --   1418.3681              1420.2366              1436.9511
 Red. masses --      1.4002                 1.3565                 1.3537
 Frc consts  --      1.6596                 1.6121                 1.6469
 IR Inten    --     17.6741                12.5667                 6.5588

                     61                     62                     63
                      A                      A                      A
 Frequencies --   1453.7731              1469.5605              1471.1486
 Red. masses --      1.3326                 1.1131                 1.0958
 Frc consts  --      1.6593                 1.4163                 1.3973
 IR Inten    --     61.6180                 3.9346                 8.3570

                     64                     65                     66
                      A                      A                      A
 Frequencies --   1473.0358              1487.4925              1489.5357
 Red. masses --      1.1481                 1.1243                 1.1305
 Frc consts  --      1.4678                 1.4657                 1.4778
 IR Inten    --     17.7687                19.8966                23.4734

                     67                     68                     69
                      A                      A                      A
 Frequencies --   1496.9996              1505.4624              1505.7210
 Red. masses --      1.0925                 1.0999                 1.1000
 Frc consts  --      1.4424                 1.4687                 1.4693
 IR Inten    --      0.6664                12.4207                 1.6499

                     70                     71                     72
                      A                      A                      A
 Frequencies --   3032.9331              3035.2318              3038.3056
 Red. masses --      1.0702                 1.0696                 1.0679
 Frc consts  --      5.8002                 5.8056                 5.8082
 IR Inten    --     68.2823                78.4565                51.2696

                     73                     74                     75
                      A                      A                      A
 Frequencies --   3055.0151              3059.8365              3069.4586
 Red. masses --      1.0805                 1.0685                 1.0617
 Frc consts  --      5.9416                 5.8944                 5.8937
 IR Inten    --     30.1519                25.5558                38.4173

                     76                     77                     78
                      A                      A                      A
 Frequencies --   3071.5789              3072.9232              3079.1730
 Red. masses --      1.0615                 1.0631                 1.0624
 Frc consts  --      5.9007                 5.9148                 5.9345
 IR Inten    --     48.3296                28.2316                41.2167

                     79                     80                     81
                      A                      A                      A
 Frequencies --   3095.9514              3118.1920              3121.2975
 Red. masses --      1.0853                 1.0967                 1.1016
 Frc consts  --      6.1290                 6.2826                 6.3231
 IR Inten    --     36.6995                40.0203                62.7068

                     82                     83                     84
                      A                      A                      A
 Frequencies --   3121.5303              3126.9416              3128.4105
 Red. masses --      1.1009                 1.1041                 1.1042
 Frc consts  --      6.3200                 6.3605                 6.3670
 IR Inten    --     31.9157                35.8026                87.0316

                     85                     86                     87
                      A                      A                      A
 Frequencies --   3138.4240              3140.5113              3141.0234
 Red. masses --      1.0964                 1.0957                 1.0984
 Frc consts  --      6.3625                 6.3671                 6.3851
 IR Inten    --     44.5795                46.2153                35.2604

 - Thermochemistry -
 -------------------
 Temperature   298.150 Kelvin.  Pressure   1.00000 Atm.
 Atom     1 has atomic number  6 and mass  12.00000

 Molecular mass:   186.12559 amu.
 Principal axes and moments of inertia in atomic units:
                           1         2         3
     Eigenvalues --   995.840544314.268964718.12173
           X            0.99998   0.00693   0.00072
           Y           -0.00693   0.99997  -0.00405
           Z           -0.00075   0.00404   0.99999
 This molecule is an asymmetric top.
 Rotational symmetry number  1.
 Warning -- assumption of classical behavior for rotation
           may cause significant error
 Rotational temperatures (Kelvin)      0.08698     0.02008     0.01836
 Rotational constants (GHZ):           1.81228     0.41832     0.38251
 Zero-point vibrational energy     737215.8 (Joules/Mol)
                                  176.19881 (Kcal/Mol)
 Warning -- explicit consideration of  18 degrees of freedom as
           vibrations may cause significant error
 Vibrational temperatures:     64.31    91.96   113.35   214.50   317.76
          (Kelvin)            352.96   366.15   397.86   473.17   530.31
                              574.71   609.59   642.50   670.85   697.59
                              754.11   789.05   852.43   938.55  1187.20
                             1197.86  1240.92  1258.32  1266.80  1288.46
                             1339.11  1357.95  1379.01  1418.43  1438.11
                             1446.05  1510.83  1517.82  1552.08  1581.56
                             1605.60  1647.53  1654.80  1678.74  1713.09
                             1729.61  1739.28  1753.07  1781.22  1794.21
                             1840.04  1886.77  1893.65  1923.18  1932.58
                             1941.67  1966.99  1977.82  1988.88  1991.46
                             2012.24  2022.30  2040.72  2043.40  2067.45
                             2091.66  2114.37  2116.65  2119.37  2140.17
                             2143.11  2153.85  2166.02  2166.40  4363.71
                             4367.02  4371.44  4395.49  4402.42  4416.27
                             4419.32  4421.25  4430.24  4454.38  4486.38
                             4490.85  4491.19  4498.97  4501.08  4515.49
                             4518.50  4519.23

 Zero-point correction=                           0.280791 (Hartree/Particle)
 Thermal correction to Energy=                    0.292511
 Thermal correction to Enthalpy=                  0.293455
 Thermal correction to Gibbs Free Energy=         0.242573
 Sum of electronic and zero-point Energies=           -617.224797
 Sum of electronic and thermal Energies=              -617.213077
 Sum of electronic and thermal Enthalpies=            -617.212132
 Sum of electronic and thermal Free Energies=         -617.263014

                     E (Thermal)             CV                S
                      KCal/Mol        Cal/Mol-Kelvin    Cal/Mol-Kelvin
 Total                  183.553             46.835            107.090
 Electronic               0.000              0.000              0.000
 Translational            0.889              2.981             41.570
 Rotational               0.889              2.981             31.383
 Vibrational            181.776             40.874             34.137
 Vibration     1          0.595              1.980              5.039
 Vibration     2          0.597              1.972              4.332
 Vibration     3          0.600              1.963              3.921
 Vibration     4          0.618              1.904              2.684
 Vibration     5          0.648              1.809              1.952
 Vibration     6          0.660              1.771              1.764
 Vibration     7          0.665              1.755              1.699
 Vibration     8          0.678              1.717              1.555
 Vibration     9          0.712              1.618              1.266
 Vibration    10          0.741              1.537              1.086
 Vibration    11          0.765              1.471              0.965
 Vibration    12          0.786              1.419              0.880
 Vibration    13          0.806              1.368              0.806
 Vibration    14          0.824              1.325              0.748
 Vibration    15          0.841              1.284              0.697
 Vibration    16          0.879              1.197              0.600
 Vibration    17          0.904              1.143              0.547
 Vibration    18          0.950              1.048              0.463

 Optimization completed.
    -- Stationary point found.
 Normal termination of Gaussian 16 at Sun Mar 10 05:09:40 2019.
