 Gaussian 16, Revision B.01,
 Gaussian 16:  ES64L-G16RevB.01 20-Dec-2017

 ----------------------------------------------------------------------
 #M062X/6-311++G(2d,2p) opt=ModRedundant freq=noraman SCRF=(SMD,solvent
 =water)
 ----------------------------------------------------------------------

 -------------------------------
 4c1_b1_4e_4c1_PSI.inp_extract_3
 -------------------------------
 Symbolic Z-matrix:
 Charge =  0 Multiplicity = 1

 SCF Done:  E(RM062X) =  -617.506886903     A.U. after   12 cycles
 SCF Done:  E(RM062X) =  -617.508426762     A.U. after   10 cycles
 SCF Done:  E(RM062X) =  -617.508520886     A.U. after    9 cycles
 SCF Done:  E(RM062X) =  -617.508528743     A.U. after    8 cycles
 SCF Done:  E(RM062X) =  -617.508529255     A.U. after    7 cycles
 Optimization completed.
    -- Stationary point found.
 Normal termination of Gaussian 16 at Sun Mar 10 02:31:41 2019.

 ----------------------------------------------------------------------
 #N Geom=AllCheck Guess=TCheck SCRF=Check GenChk RM062X/6-311++G(2d,2p)
  Freq
 ----------------------------------------------------------------------

 Structure from the checkpoint file:  "4c1_b1_4e_4c1_PSI.inp_extract_3.chk"
 -------------------------------
 4c1_b1_4e_4c1_PSI.inp_extract_3
 -------------------------------
 Charge =  0 Multiplicity = 1

                         Standard orientation:
 ---------------------------------------------------------------------
 Center     Atomic      Atomic             Coordinates (Angstroms)
 Number     Number       Type             X           Y           Z
 ---------------------------------------------------------------------
      1          6           0       -3.584468   -0.985831    0.042976
      2          6           0        1.844274   -1.180962   -0.376453
      3          6           0        3.391859    1.142076    0.230141
      4          8           0        3.038117   -0.875944   -1.081254
      5          8           0       -1.595585    1.073547   -0.102768
      6          6           0       -2.777761    1.174446   -0.901105
      7          8           0       -0.021432   -0.269192    0.826983
      8          6           0       -3.944902    0.472540   -0.230336
      9          6           0        2.072080    0.908949    0.965461
     10          6           0       -1.198479   -0.279594    0.072434
     11          6           0        3.967039   -0.178475   -0.250885
     12          6           0        1.146775    0.091609    0.085367
     13          6           0       -2.262203   -1.065381    0.806281
     14          1           0       -4.373749   -1.483281    0.604839
     15          1           0       -3.481331   -1.514310   -0.908489
     16          1           0        2.073561   -1.799402    0.499444
     17          1           0        1.205975   -1.748257   -1.052368
     18          1           0        3.227362    1.791905   -0.632055
     19          1           0        4.114225    1.632838    0.882330
     20          1           0       -2.583353    0.733133   -1.885107
     21          1           0       -2.964161    2.238058   -1.030685
     22          1           0       -4.172576    0.982928    0.708216
     23          1           0       -4.823566    0.545255   -0.871815
     24          1           0        2.256050    0.348305    1.886336
     25          1           0        1.594593    1.851212    1.234026
     26          1           0       -1.011800   -0.711736   -0.920166
     27          1           0        4.859718   -0.027454   -0.853964
     28          1           0        4.223978   -0.814124    0.603967
     29          1           0        0.858944    0.681535   -0.788425
     30          1           0       -2.370373   -0.633151    1.803869
     31          1           0       -1.927590   -2.096994    0.913081
 ---------------------------------------------------------------------

 SCF Done:  E(RM062X) =  -617.508529255     A.U. after    1 cycles

 The electronic state is 1-A.
 Alpha  occ. eigenvalues --  -19.63843 -19.63144 -19.62999 -10.63349 -10.58300
 Alpha  occ. eigenvalues --  -10.57513 -10.57459 -10.57425 -10.52591 -10.52565
 Alpha  occ. eigenvalues --  -10.52553 -10.52485 -10.52248  -1.20182  -1.16349
 Alpha  occ. eigenvalues --   -1.13719  -0.90642  -0.89510  -0.86696  -0.83652
 Alpha  occ. eigenvalues --   -0.74365  -0.73516  -0.72486  -0.69768  -0.65983
 Alpha  occ. eigenvalues --   -0.64335  -0.59781  -0.57809  -0.57153  -0.55177
 Alpha  occ. eigenvalues --   -0.54504  -0.52534  -0.51697  -0.50597  -0.50001
 Alpha  occ. eigenvalues --   -0.47968  -0.45849  -0.45599  -0.45537  -0.44160
 Alpha  occ. eigenvalues --   -0.43660  -0.40370  -0.40260  -0.40022  -0.39161
 Alpha  occ. eigenvalues --   -0.38313  -0.38077  -0.37232  -0.35834  -0.32649
 Alpha  occ. eigenvalues --   -0.31886
 Alpha virt. eigenvalues --    0.00507   0.01279   0.01375   0.01471   0.02577
 Alpha virt. eigenvalues --    0.02840   0.03039   0.04090   0.04228   0.04711
 Alpha virt. eigenvalues --    0.04837   0.05109   0.05935   0.06147   0.06992

 Mulliken charges:
               1
     1  C   -0.412096
     2  C   -0.330659
     3  C   -0.365498
     4  O   -0.375602
     5  O   -0.408068
     6  C   -0.135782
     7  O   -0.342460
     8  C   -0.333528
     9  C   -0.229316
    10  C   -0.062457
    11  C   -0.154059
    12  C   -0.128395
    13  C   -0.219796
    14  H    0.201180
    15  H    0.176587
    16  H    0.209885
    17  H    0.202661
    18  H    0.164339
    19  H    0.192865
    20  H    0.150425
    21  H    0.204716
    22  H    0.160506
    23  H    0.181711
    24  H    0.205219
    25  H    0.171453
    26  H    0.254666
    27  H    0.217361
    28  H    0.151173
    29  H    0.280732
    30  H    0.198772
    31  H    0.173469
 Sum of Mulliken charges =  -0.00000

 Dipole moment (field-independent basis, Debye):
    X=             -1.5928    Y=             -0.4107    Z=             -0.6557  Tot=              1.7707
 Quadrupole moment (field-independent basis, Debye-Ang):
   XX=            -66.1311   YY=            -80.2776   ZZ=            -83.2221
   XY=              5.7228   XZ=              9.3845   YZ=             -2.4676

  Exact polarizability: 188.196   1.195 171.243   2.041  -1.348 169.106
 Approx polarizability: 148.167   0.550 141.373   1.597  -0.645 142.957

                      1                      2                      3
                      A                      A                      A
 Frequencies --     33.9109                52.1177                71.6178
 Red. masses --      3.7344                 3.7516                 3.6990
 Frc consts  --      0.0025                 0.0060                 0.0112
 IR Inten    --      4.2760                 1.0297                 3.0670

                      4                      5                      6
                      A                      A                      A
 Frequencies --    149.5173               193.0191               244.4883
 Red. masses --      3.0370                 3.1704                 2.3791
 Frc consts  --      0.0400                 0.0696                 0.0838
 IR Inten    --      1.7564                 0.7867                 7.9898

                      7                      8                      9
                      A                      A                      A
 Frequencies --    248.8091               281.7516               333.1708
 Red. masses --      2.0111                 3.3461                 2.2782
 Frc consts  --      0.0734                 0.1565                 0.1490
 IR Inten    --      5.7325                 1.8703                13.6385

                     10                     11                     12
                      A                      A                      A
 Frequencies --    358.1852               392.1750               437.5040
 Red. masses --      2.5320                 3.3072                 2.4038
 Frc consts  --      0.1914                 0.2997                 0.2711
 IR Inten    --     13.6535                 8.7364                 6.7283

                     13                     14                     15
                      A                      A                      A
 Frequencies --    444.0544               464.3626               489.0403
 Red. masses --      3.6204                 3.3245                 3.5538
 Frc consts  --      0.4206                 0.4224                 0.5008
 IR Inten    --      1.5528                 1.8895                 3.0312

                     16                     17                     18
                      A                      A                      A
 Frequencies --    515.3467               545.0516               590.9315
 Red. masses --      2.6547                 2.1552                 1.9831
 Frc consts  --      0.4154                 0.3772                 0.4080
 IR Inten    --      1.6312                13.4080                 7.0435

                     19                     20                     21
                      A                      A                      A
 Frequencies --    654.2507               831.3682               833.8830
 Red. masses --      3.0930                 2.0983                 1.8485
 Frc consts  --      0.7801                 0.8545                 0.7573
 IR Inten    --      1.9470                10.2303                 2.7397

                     22                     23                     24
                      A                      A                      A
 Frequencies --    862.9682               877.7051               884.2270
 Red. masses --      1.9667                 1.4035                 1.8410
 Frc consts  --      0.8629                 0.6370                 0.8481
 IR Inten    --      9.4454                12.3409                11.6249

                     25                     26                     27
                      A                      A                      A
 Frequencies --    898.5360               932.1375               943.0927
 Red. masses --      2.3036                 2.4414                 2.2281
 Frc consts  --      1.0958                 1.2498                 1.1676
 IR Inten    --     11.5441                66.7111                40.8443

                     28                     29                     30
                      A                      A                      A
 Frequencies --    959.6854               987.6671               993.7686
 Red. masses --      2.0908                 2.0483                 1.3987
 Frc consts  --      1.1345                 1.1772                 0.8139
 IR Inten    --     11.0277                52.8544                 1.6009

                     31                     32                     33
                      A                      A                      A
 Frequencies --   1008.7276              1053.3466              1056.7104
 Red. masses --      2.1497                 1.6984                 1.5488
 Frc consts  --      1.2888                 1.1103                 1.0190
 IR Inten    --     15.4244                19.4719               105.2514

                     34                     35                     36
                      A                      A                      A
 Frequencies --   1093.5286              1100.5990              1120.0909
 Red. masses --      2.5455                 3.3403                 4.2208
 Frc consts  --      1.7934                 2.3840                 3.1200
 IR Inten    --     81.0592                69.6277               284.6600

                     37                     38                     39
                      A                      A                      A
 Frequencies --   1153.8246              1155.9715              1171.4285
 Red. masses --      2.3447                 2.9987                 2.4088
 Frc consts  --      1.8392                 2.3609                 1.9475
 IR Inten    --     34.4813               119.6199                44.2686

                     40                     41                     42
                      A                      A                      A
 Frequencies --   1184.2085              1203.1375              1209.6302
 Red. masses --      2.0907                 1.5186                 1.7909
 Frc consts  --      1.7274                 1.2952                 1.5440
 IR Inten    --      5.8427                10.2296               222.5534

                     43                     44                     45
                      A                      A                      A
 Frequencies --   1227.6132              1239.6257              1251.7618
 Red. masses --      2.3973                 1.6713                 1.6177
 Frc consts  --      2.1286                 1.5132                 1.4934
 IR Inten    --     22.4445                46.0475                97.1597

                     46                     47                     48
                      A                      A                      A
 Frequencies --   1279.0214              1304.1868              1315.7469
 Red. masses --      1.2339                 1.1928                 1.1919
 Frc consts  --      1.1893                 1.1954                 1.2157
 IR Inten    --      6.4737                22.6909                29.9274

                     49                     50                     51
                      A                      A                      A
 Frequencies --   1331.3483              1343.3550              1347.4202
 Red. masses --      1.3131                 1.2846                 1.2628
 Frc consts  --      1.3713                 1.3659                 1.3508
 IR Inten    --      9.5935                 3.5794                 8.8182

                     52                     53                     54
                      A                      A                      A
 Frequencies --   1356.5864              1368.8566              1381.4816
 Red. masses --      1.2733                 1.4469                 1.4422
 Frc consts  --      1.3806                 1.5973                 1.6216
 IR Inten    --     16.0901                 2.1088                 4.9729

                     55                     56                     57
                      A                      A                      A
 Frequencies --   1385.7524              1396.0978              1399.8827
 Red. masses --      1.4788                 1.2696                 1.4581
 Frc consts  --      1.6732                 1.4579                 1.6835
 IR Inten    --      4.7881                17.7643                16.7766

                     58                     59                     60
                      A                      A                      A
 Frequencies --   1414.3703              1421.4026              1430.3205
 Red. masses --      1.4747                 1.3348                 1.4558
 Frc consts  --      1.7381                 1.5889                 1.7547
 IR Inten    --     28.7534                10.1292                25.7811

                     61                     62                     63
                      A                      A                      A
 Frequencies --   1452.1348              1469.9011              1470.0014
 Red. masses --      1.4081                 1.1109                 1.0982
 Frc consts  --      1.7494                 1.4142                 1.3982
 IR Inten    --     32.2644                 8.0972                 5.2719

                     64                     65                     66
                      A                      A                      A
 Frequencies --   1473.8411              1487.4246              1491.5352
 Red. masses --      1.1334                 1.1301                 1.1311
 Frc consts  --      1.4505                 1.4731                 1.4826
 IR Inten    --     14.2556                15.0922                25.6194

                     67                     68                     69
                      A                      A                      A
 Frequencies --   1496.3623              1503.4922              1505.2313
 Red. masses --      1.0863                 1.0968                 1.1024
 Frc consts  --      1.4331                 1.4607                 1.4716
 IR Inten    --      1.3265                 4.5954                10.0653

                     70                     71                     72
                      A                      A                      A
 Frequencies --   3018.9012              3033.2130              3035.4418
 Red. masses --      1.0830                 1.0678                 1.0699
 Frc consts  --      5.8153                 5.7882                 5.8081
 IR Inten    --     62.1998                43.2821                88.4988

                     73                     74                     75
                      A                      A                      A
 Frequencies --   3037.4202              3059.0284              3061.1108
 Red. masses --      1.0702                 1.0662                 1.0686
 Frc consts  --      5.8171                 5.8785                 5.8994
 IR Inten    --     70.8573                17.4706                22.8872

                     76                     77                     78
                      A                      A                      A
 Frequencies --   3070.0995              3071.9441              3072.7077
 Red. masses --      1.0617                 1.0631                 1.0614
 Frc consts  --      5.8960                 5.9109                 5.9043
 IR Inten    --     39.3154                29.4036                43.5579

                     79                     80                     81
                      A                      A                      A
 Frequencies --   3077.4006              3119.2320              3119.4087
 Red. masses --      1.0818                 1.0990                 1.0974
 Frc consts  --      6.0360                 6.3000                 6.2913
 IR Inten    --     65.9443                44.6246                36.4621

                     82                     83                     84
                      A                      A                      A
 Frequencies --   3122.5895              3124.3605              3128.9783
 Red. masses --      1.1012                 1.1029                 1.1038
 Frc consts  --      6.3262                 6.3431                 6.3674
 IR Inten    --     56.5009                56.0422                51.5677

                     85                     86                     87
                      A                      A                      A
 Frequencies --   3131.8381              3140.9734              3142.1012
 Red. masses --      1.0979                 1.0963                 1.0960
 Frc consts  --      6.3447                 6.3723                 6.3753
 IR Inten    --     36.3098                41.9878                40.0917

 - Thermochemistry -
 -------------------
 Temperature   298.150 Kelvin.  Pressure   1.00000 Atm.
 Atom     1 has atomic number  6 and mass  12.00000

 Molecular mass:   186.12559 amu.
 Principal axes and moments of inertia in atomic units:
                           1         2         3
     Eigenvalues --   848.469915005.013675254.97974
           X            0.99993   0.00890   0.00769
           Y           -0.00867   0.99951  -0.03010
           Z           -0.00795   0.03003   0.99952
 This molecule is an asymmetric top.
 Rotational symmetry number  1.
 Warning -- assumption of classical behavior for rotation
           may cause significant error
 Rotational temperatures (Kelvin)      0.10208     0.01731     0.01648
 Rotational constants (GHZ):           2.12705     0.36059     0.34343
 Zero-point vibrational energy     736463.3 (Joules/Mol)
                                  176.01896 (Kcal/Mol)
 Warning -- explicit consideration of  18 degrees of freedom as
           vibrations may cause significant error
 Vibrational temperatures:     48.79    74.99   103.04   215.12   277.71
          (Kelvin)            351.76   357.98   405.38   479.36   515.35
                              564.25   629.47   638.90   668.11   703.62
                              741.47   784.21   850.22   941.32  1196.15
                             1199.77  1241.62  1262.82  1272.21  1292.79
                             1341.14  1356.90  1380.77  1421.03  1429.81
                             1451.33  1515.53  1520.37  1573.34  1583.52
                             1611.56  1660.10  1663.19  1685.42  1703.81
                             1731.05  1740.39  1766.26  1783.54  1801.01
                             1840.23  1876.43  1893.07  1915.51  1932.79
                             1938.64  1951.83  1969.48  1987.64  1993.79
                             2008.67  2014.12  2034.96  2045.08  2057.91
                             2089.30  2114.86  2115.00  2120.53  2140.07
                             2145.99  2152.93  2163.19  2165.69  4343.53
                             4364.12  4367.32  4370.17  4401.26  4404.26
                             4417.19  4419.84  4420.94  4427.69  4487.88
                             4488.13  4492.71  4495.26  4501.90  4506.02
                             4519.16  4520.78

 Zero-point correction=                           0.280504 (Hartree/Particle)
 Thermal correction to Energy=                    0.292333
 Thermal correction to Enthalpy=                  0.293277
 Thermal correction to Gibbs Free Energy=         0.241681
 Sum of electronic and zero-point Energies=           -617.228025
 Sum of electronic and thermal Energies=              -617.216197
 Sum of electronic and thermal Enthalpies=            -617.215252
 Sum of electronic and thermal Free Energies=         -617.266848

                     E (Thermal)             CV                S
                      KCal/Mol        Cal/Mol-Kelvin    Cal/Mol-Kelvin
 Total                  183.442             46.863            108.593
 Electronic               0.000              0.000              0.000
 Translational            0.889              2.981             41.570
 Rotational               0.889              2.981             31.479
 Vibrational            181.664             40.901             35.544
 Vibration     1          0.594              1.983              5.586
 Vibration     2          0.596              1.977              4.735
 Vibration     3          0.598              1.968              4.108
 Vibration     4          0.618              1.903              2.678
 Vibration     5          0.635              1.850              2.199
 Vibration     6          0.660              1.772              1.770
 Vibration     7          0.662              1.765              1.739
 Vibration     8          0.681              1.707              1.523
 Vibration     9          0.715              1.609              1.245
 Vibration    10          0.733              1.558              1.130
 Vibration    11          0.760              1.487              0.992
 Vibration    12          0.798              1.388              0.834
 Vibration    13          0.804              1.374              0.814
 Vibration    14          0.822              1.329              0.754
 Vibration    15          0.845              1.274              0.686
 Vibration    16          0.870              1.216              0.621
 Vibration    17          0.900              1.151              0.555
 Vibration    18          0.948              1.051              0.466

 Optimization completed.
    -- Stationary point found.
 Normal termination of Gaussian 16 at Sun Mar 10 03:33:29 2019.
