 Gaussian 16, Revision B.01,
 Gaussian 16:  ES64L-G16RevB.01 20-Dec-2017

 ----------------------------------------------------------------------
 #M062X/6-311++G(2d,2p) opt=ModRedundant freq=noraman SCRF=(SMD,solvent
 =water)
 ----------------------------------------------------------------------

 -------------------------------
 4c1_b1_4e_4c1_PSI.inp_extract_7
 -------------------------------
 Symbolic Z-matrix:
 Charge =  0 Multiplicity = 1

 SCF Done:  E(RM062X) =  -617.503814533     A.U. after   12 cycles
 SCF Done:  E(RM062X) =  -617.505519821     A.U. after   11 cycles
 SCF Done:  E(RM062X) =  -617.505721720     A.U. after   10 cycles
 SCF Done:  E(RM062X) =  -617.505810232     A.U. after    9 cycles
 SCF Done:  E(RM062X) =  -617.505813153     A.U. after    7 cycles
 Optimization completed.
    -- Stationary point found.
 Normal termination of Gaussian 16 at Sun Mar 10 02:35:26 2019.

 ----------------------------------------------------------------------
 #N Geom=AllCheck Guess=TCheck SCRF=Check GenChk RM062X/6-311++G(2d,2p)
  Freq
 ----------------------------------------------------------------------

 Structure from the checkpoint file:  "4c1_b1_4e_4c1_PSI.inp_extract_7.chk"
 -------------------------------
 4c1_b1_4e_4c1_PSI.inp_extract_7
 -------------------------------
 Charge =  0 Multiplicity = 1

                         Standard orientation:
 ---------------------------------------------------------------------
 Center     Atomic      Atomic             Coordinates (Angstroms)
 Number     Number       Type             X           Y           Z
 ---------------------------------------------------------------------
      1          6           0       -3.546734    0.549382    0.780622
      2          6           0        1.380521   -0.818685    0.558439
      3          6           0        3.672710    0.573957   -0.458456
      4          8           0        2.621457   -1.467016    0.321827
      5          8           0       -1.467246   -0.588734   -0.828825
      6          6           0       -2.585312   -1.395038   -0.450543
      7          8           0       -0.017851    1.063591   -0.242996
      8          6           0       -3.824364   -0.539634   -0.253674
      9          6           0        2.340194    1.302300   -0.307310
     10          6           0       -1.143312    0.352262    0.183802
     11          6           0        3.731162   -0.590024    0.511833
     12          6           0        1.189759    0.319281   -0.445150
     13          6           0       -2.282804    1.323093    0.404015
     14          1           0       -4.392808    1.229993    0.864228
     15          1           0       -3.404942    0.086319    1.760688
     16          1           0        1.354652   -0.421181    1.580221
     17          1           0        0.614925   -1.584562    0.453573
     18          1           0        3.780644    0.195626   -1.477035
     19          1           0        4.504710    1.250838   -0.264780
     20          1           0       -2.340865   -1.931400    0.473675
     21          1           0       -2.717237   -2.122913   -1.247693
     22          1           0       -4.094621   -0.085286   -1.209550
     23          1           0       -4.652886   -1.175172    0.060043
     24          1           0        2.277345    1.758874    0.683997
     25          1           0        2.238319    2.095052   -1.048815
     26          1           0       -0.935447   -0.196847    1.110071
     27          1           0        4.623396   -1.194230    0.362726
     28          1           0        3.722239   -0.224607    1.544843
     29          1           0        1.179008   -0.111439   -1.450261
     30          1           0       -2.435901    1.878900   -0.523811
     31          1           0       -2.002328    2.027951    1.186354
 ---------------------------------------------------------------------

 SCF Done:  E(RM062X) =  -617.505813153     A.U. after    1 cycles

 The electronic state is 1-A.
 Alpha  occ. eigenvalues --  -19.63772 -19.63236 -19.63060 -10.63313 -10.58495
 Alpha  occ. eigenvalues --  -10.57749 -10.57545 -10.57410 -10.52581 -10.52571
 Alpha  occ. eigenvalues --  -10.52510 -10.52473 -10.52262  -1.20132  -1.16419
 Alpha  occ. eigenvalues --   -1.13644  -0.90665  -0.89504  -0.86607  -0.83942
 Alpha  occ. eigenvalues --   -0.75039  -0.73744  -0.72177  -0.69317  -0.65529
 Alpha  occ. eigenvalues --   -0.64812  -0.59824  -0.57679  -0.57381  -0.55115
 Alpha  occ. eigenvalues --   -0.54073  -0.52420  -0.52203  -0.50966  -0.49760
 Alpha  occ. eigenvalues --   -0.48140  -0.46739  -0.45389  -0.45290  -0.43901
 Alpha  occ. eigenvalues --   -0.43104  -0.41495  -0.40191  -0.39907  -0.39417
 Alpha  occ. eigenvalues --   -0.38496  -0.37359  -0.37104  -0.35140  -0.33000
 Alpha  occ. eigenvalues --   -0.31968
 Alpha virt. eigenvalues --    0.00497   0.01273   0.01337   0.01588   0.02589
 Alpha virt. eigenvalues --    0.02862   0.02948   0.04097   0.04246   0.04723
 Alpha virt. eigenvalues --    0.04894   0.05164   0.05998   0.06118   0.07368

 Mulliken charges:
               1
     1  C   -0.423496
     2  C   -0.343583
     3  C   -0.393317
     4  O   -0.392821
     5  O   -0.387492
     6  C   -0.093338
     7  O   -0.417305
     8  C   -0.368206
     9  C   -0.288715
    10  C    0.053610
    11  C   -0.122264
    12  C   -0.043163
    13  C   -0.368655
    14  H    0.205390
    15  H    0.175022
    16  H    0.234029
    17  H    0.247599
    18  H    0.170478
    19  H    0.184013
    20  H    0.143237
    21  H    0.200946
    22  H    0.165807
    23  H    0.180154
    24  H    0.207342
    25  H    0.183922
    26  H    0.286051
    27  H    0.212167
    28  H    0.144473
    29  H    0.265729
    30  H    0.199750
    31  H    0.182635
 Sum of Mulliken charges =  -0.00000

 Dipole moment (field-independent basis, Debye):
    X=             -1.1788    Y=              0.4722    Z=              2.6073  Tot=              2.9001
 Quadrupole moment (field-independent basis, Debye-Ang):
   XX=            -64.0087   YY=            -84.7804   ZZ=            -79.9025
   XY=              8.1640   XZ=             -1.8261   YZ=              0.5221

  Exact polarizability: 188.534   2.508 172.393  -1.624   1.036 167.090
 Approx polarizability: 148.458   1.729 143.002  -1.083   1.059 141.054

                      1                      2                      3
                      A                      A                      A
 Frequencies --     50.1609                63.0663                88.5858
 Red. masses --      3.5933                 3.7314                 3.8811
 Frc consts  --      0.0053                 0.0087                 0.0179
 IR Inten    --      5.6938                 0.0803                 2.2631

                      4                      5                      6
                      A                      A                      A
 Frequencies --    162.7718               199.0605               254.4559
 Red. masses --      2.8640                 3.4444                 2.4052
 Frc consts  --      0.0447                 0.0804                 0.0918
 IR Inten    --      1.6171                 3.2735                10.6068

                      7                      8                      9
                      A                      A                      A
 Frequencies --    257.1016               280.3175               311.2976
 Red. masses --      2.2239                 2.9731                 3.2774
 Frc consts  --      0.0866                 0.1376                 0.1871
 IR Inten    --      3.8020                 3.8082                 1.2588

                     10                     11                     12
                      A                      A                      A
 Frequencies --    361.8335               377.7495               440.2387
 Red. masses --      2.1706                 2.4474                 3.7724
 Frc consts  --      0.1674                 0.2058                 0.4308
 IR Inten    --      8.1193                22.5507                 1.4087

                     13                     14                     15
                      A                      A                      A
 Frequencies --    452.6117               466.6417               488.5610
 Red. masses --      3.6480                 2.6829                 2.5537
 Frc consts  --      0.4403                 0.3442                 0.3591
 IR Inten    --      3.7040                 1.3266                 0.5391

                     16                     17                     18
                      A                      A                      A
 Frequencies --    523.5636               549.9465               607.8602
 Red. masses --      2.4148                 2.1313                 2.6820
 Frc consts  --      0.3900                 0.3798                 0.5839
 IR Inten    --      2.7180                18.7714                 0.4162

                     19                     20                     21
                      A                      A                      A
 Frequencies --    648.0444               832.3445               834.6999
 Red. masses --      3.0099                 2.1860                 1.7889
 Frc consts  --      0.7448                 0.8923                 0.7343
 IR Inten    --     10.9099                 0.9576                 7.4188

                     22                     23                     24
                      A                      A                      A
 Frequencies --    862.8185               877.9272               883.9224
 Red. masses --      1.9560                 1.4185                 1.8789
 Frc consts  --      0.8580                 0.6442                 0.8649
 IR Inten    --     17.6366                14.5100                 8.5355

                     25                     26                     27
                      A                      A                      A
 Frequencies --    901.7333               934.7167               945.3598
 Red. masses --      2.3973                 2.3598                 2.2184
 Frc consts  --      1.1485                 1.2147                 1.1681
 IR Inten    --     15.4615                37.7388                36.3245

                     28                     29                     30
                      A                      A                      A
 Frequencies --    959.1858               989.6531               996.5454
 Red. masses --      2.1432                 1.6943                 1.8727
 Frc consts  --      1.1617                 0.9777                 1.0957
 IR Inten    --     21.5190                25.3583                22.6341

                     31                     32                     33
                      A                      A                      A
 Frequencies --   1005.9210              1053.1664              1059.4409
 Red. masses --      1.8244                 1.8159                 1.5192
 Frc consts  --      1.0877                 1.1867                 1.0047
 IR Inten    --     21.5764                25.8138                79.9648

                     34                     35                     36
                      A                      A                      A
 Frequencies --   1079.0985              1099.0169              1124.7638
 Red. masses --      2.9852                 2.5558                 3.9074
 Frc consts  --      2.0481                 1.8188                 2.9124
 IR Inten    --     39.4695                76.1229               264.6104

                     37                     38                     39
                      A                      A                      A
 Frequencies --   1146.2978              1156.9393              1176.2819
 Red. masses --      2.4503                 3.0033                 2.2191
 Frc consts  --      1.8970                 2.3685                 1.8091
 IR Inten    --     71.4382               122.5359                45.9525

                     40                     41                     42
                      A                      A                      A
 Frequencies --   1183.9223              1202.8059              1217.2230
 Red. masses --      2.2773                 1.4886                 1.5744
 Frc consts  --      1.8807                 1.2689                 1.3744
 IR Inten    --      3.4014                 7.1952               156.7905

                     43                     44                     45
                      A                      A                      A
 Frequencies --   1234.8345              1240.0532              1251.5314
 Red. masses --      3.3915                 1.7174                 1.5130
 Frc consts  --      3.0469                 1.5560                 1.3962
 IR Inten    --    185.0877                50.5685                27.5278

                     46                     47                     48
                      A                      A                      A
 Frequencies --   1278.4288              1304.8251              1317.0092
 Red. masses --      1.2320                 1.1577                 1.2084
 Frc consts  --      1.1863                 1.1613                 1.2349
 IR Inten    --      4.9244                13.7653                31.3858

                     49                     50                     51
                      A                      A                      A
 Frequencies --   1334.4484              1340.8606              1350.1439
 Red. masses --      1.3014                 1.1999                 1.3153
 Frc consts  --      1.3654                 1.2711                 1.4126
 IR Inten    --     11.3140                 1.9771                 3.8645

                     52                     53                     54
                      A                      A                      A
 Frequencies --   1364.7387              1367.8632              1384.0323
 Red. masses --      1.3020                 1.3991                 1.4594
 Frc consts  --      1.4287                 1.5423                 1.6471
 IR Inten    --      7.9988                 1.3698                 5.2219

                     55                     56                     57
                      A                      A                      A
 Frequencies --   1384.9217              1398.1254              1403.3358
 Red. masses --      1.5208                 1.2733                 1.5065
 Frc consts  --      1.7186                 1.4664                 1.7480
 IR Inten    --      6.3507                35.6980                11.5112

                     58                     59                     60
                      A                      A                      A
 Frequencies --   1413.4585              1422.4677              1436.9639
 Red. masses --      1.3923                 1.3156                 1.3956
 Frc consts  --      1.6389                 1.5685                 1.6979
 IR Inten    --     10.4464                10.4919                 1.8258

                     61                     62                     63
                      A                      A                      A
 Frequencies --   1446.7210              1468.5777              1473.8307
 Red. masses --      1.5091                 1.1086                 1.1185
 Frc consts  --      1.8609                 1.4086                 1.4314
 IR Inten    --     54.5320                 5.0897                 8.7926

                     64                     65                     66
                      A                      A                      A
 Frequencies --   1474.0106              1488.3141              1490.4584
 Red. masses --      1.0968                 1.1247                 1.1301
 Frc consts  --      1.4040                 1.4679                 1.4791
 IR Inten    --      8.4775                11.3461                25.9535

                     67                     68                     69
                      A                      A                      A
 Frequencies --   1498.9699              1505.9672              1509.6200
 Red. masses --      1.0877                 1.0951                 1.0957
 Frc consts  --      1.4400                 1.4632                 1.4712
 IR Inten    --      4.0599                 6.1745                 6.7218

                     70                     71                     72
                      A                      A                      A
 Frequencies --   3028.6424              3034.1882              3037.0638
 Red. masses --      1.0710                 1.0720                 1.0722
 Frc consts  --      5.7881                 5.8145                 5.8268
 IR Inten    --     20.2495                32.2078                26.3812

                     73                     74                     75
                      A                      A                      A
 Frequencies --   3037.1841              3059.0626              3062.0691
 Red. masses --      1.0766                 1.0735                 1.0686
 Frc consts  --      5.8513                 5.9186                 5.9035
 IR Inten    --    173.5901                10.9325                23.6423

                     76                     77                     78
                      A                      A                      A
 Frequencies --   3066.9268              3070.3873              3073.8889
 Red. masses --      1.0731                 1.0616                 1.0614
 Frc consts  --      5.9469                 5.8966                 5.9088
 IR Inten    --     85.5204                40.6619                47.2493

                     79                     80                     81
                      A                      A                      A
 Frequencies --   3074.7195              3117.1906              3119.6840
 Red. masses --      1.0622                 1.1005                 1.0978
 Frc consts  --      5.9165                 6.3004                 6.2949
 IR Inten    --     42.3212                44.1255                39.5046

                     82                     83                     84
                      A                      A                      A
 Frequencies --   3123.2106              3125.0445              3130.4272
 Red. masses --      1.1009                 1.1031                 1.1039
 Frc consts  --      6.3272                 6.3472                 6.3738
 IR Inten    --     57.1442                55.5062                51.9828

                     85                     86                     87
                      A                      A                      A
 Frequencies --   3140.7397              3142.8951              3143.2488
 Red. masses --      1.0959                 1.0963                 1.0960
 Frc consts  --      6.3693                 6.3805                 6.3798
 IR Inten    --     43.9736                 7.8191                59.7263

 - Thermochemistry -
 -------------------
 Temperature   298.150 Kelvin.  Pressure   1.00000 Atm.
 Atom     1 has atomic number  6 and mass  12.00000

 Molecular mass:   186.12559 amu.
 Principal axes and moments of inertia in atomic units:
                           1         2         3
     Eigenvalues --   863.063634651.060285080.96259
           X            0.99996   0.00840  -0.00369
           Y           -0.00838   0.99995   0.00458
           Z            0.00373  -0.00454   0.99998
 This molecule is an asymmetric top.
 Rotational symmetry number  1.
 Warning -- assumption of classical behavior for rotation
           may cause significant error
 Rotational temperatures (Kelvin)      0.10036     0.01862     0.01705
 Rotational constants (GHZ):           2.09109     0.38803     0.35520
 Zero-point vibrational energy     737370.6 (Joules/Mol)
                                  176.23580 (Kcal/Mol)
 Warning -- explicit consideration of  18 degrees of freedom as
           vibrations may cause significant error
 Vibrational temperatures:     72.17    90.74   127.46   234.19   286.40
          (Kelvin)            366.11   369.91   403.31   447.89   520.60
                              543.50   633.41   651.21   671.39   702.93
                              753.29   791.25   874.58   932.39  1197.56
                             1200.95  1241.40  1263.14  1271.77  1297.39
                             1344.85  1360.16  1380.05  1423.89  1433.81
                             1447.30  1515.27  1524.30  1552.58  1581.24
                             1618.28  1649.27  1664.58  1692.41  1703.40
                             1730.57  1751.31  1776.65  1784.16  1800.67
                             1839.37  1877.35  1894.88  1919.97  1929.20
                             1942.56  1963.55  1968.05  1991.31  1992.59
                             2011.59  2019.09  2033.65  2046.61  2067.47
                             2081.51  2112.96  2120.51  2120.77  2141.35
                             2144.44  2156.68  2166.75  2172.01  4357.54
                             4365.52  4369.66  4369.83  4401.31  4405.63
                             4412.62  4417.60  4422.64  4423.84  4484.94
                             4488.53  4493.60  4496.24  4503.99  4518.82
                             4521.93  4522.43

 Zero-point correction=                           0.280850 (Hartree/Particle)
 Thermal correction to Energy=                    0.292539
 Thermal correction to Enthalpy=                  0.293483
 Thermal correction to Gibbs Free Energy=         0.242810
 Sum of electronic and zero-point Energies=           -617.224964
 Sum of electronic and thermal Energies=              -617.213275
 Sum of electronic and thermal Enthalpies=            -617.212330
 Sum of electronic and thermal Free Energies=         -617.263004

                     E (Thermal)             CV                S
                      KCal/Mol        Cal/Mol-Kelvin    Cal/Mol-Kelvin
 Total                  183.571             46.751            106.651
 Electronic               0.000              0.000              0.000
 Translational            0.889              2.981             41.570
 Rotational               0.889              2.981             31.390
 Vibrational            181.793             40.789             33.691
 Vibration     1          0.595              1.978              4.811
 Vibration     2          0.597              1.972              4.359
 Vibration     3          0.601              1.957              3.691
 Vibration     4          0.623              1.888              2.517
 Vibration     5          0.637              1.841              2.142
 Vibration     6          0.665              1.755              1.700
 Vibration     7          0.667              1.751              1.681
 Vibration     8          0.680              1.710              1.532
 Vibration     9          0.700              1.652              1.355
 Vibration    10          0.736              1.551              1.114
 Vibration    11          0.748              1.518              1.048
 Vibration    12          0.800              1.382              0.826
 Vibration    13          0.811              1.355              0.788
 Vibration    14          0.824              1.324              0.747
 Vibration    15          0.844              1.275              0.687
 Vibration    16          0.879              1.198              0.602
 Vibration    17          0.905              1.140              0.544
 Vibration    18          0.967              1.015              0.436

                           ! Non-Optimized Parameters !
 Normal termination of Gaussian 16 at Sun Mar 10 03:36:59 2019.
