 Gaussian 16, Revision B.01,
 Gaussian 16:  ES64L-G16RevB.01 20-Dec-2017

 ----------------------------------------------------------------------
 #M062X/6-311++G(2d,2p) opt=ModRedundant freq=noraman SCRF=(SMD,solvent
 =water)
 ----------------------------------------------------------------------

 --------------------------------
 4c1_b1_4e_4c1_PSI.inp_extract_14
 --------------------------------
 Symbolic Z-matrix:
 Charge =  0 Multiplicity = 1

 SCF Done:  E(RM062X) =  -617.502222941     A.U. after   13 cycles
 SCF Done:  E(RM062X) =  -617.503733513     A.U. after   11 cycles
 SCF Done:  E(RM062X) =  -617.503985355     A.U. after   11 cycles
 SCF Done:  E(RM062X) =  -617.504105917     A.U. after   10 cycles
 SCF Done:  E(RM062X) =  -617.504136491     A.U. after    9 cycles
 SCF Done:  E(RM062X) =  -617.504168489     A.U. after   10 cycles
 SCF Done:  E(RM062X) =  -617.504189952     A.U. after    9 cycles
 SCF Done:  E(RM062X) =  -617.504218725     A.U. after   10 cycles
 SCF Done:  E(RM062X) =  -617.504218733     A.U. after    9 cycles
 SCF Done:  E(RM062X) =  -617.504220722     A.U. after    9 cycles
 SCF Done:  E(RM062X) =  -617.504220702     A.U. after    7 cycles
 Optimization completed.
    -- Stationary point found.
 Normal termination of Gaussian 16 at Sun Mar 10 04:27:15 2019.

 ----------------------------------------------------------------------
 #N Geom=AllCheck Guess=TCheck SCRF=Check GenChk RM062X/6-311++G(2d,2p)
  Freq
 ----------------------------------------------------------------------

 Structure from the checkpoint file:  "4c1_b1_4e_4c1_PSI.inp_extract_14.chk"
 --------------------------------
 4c1_b1_4e_4c1_PSI.inp_extract_14
 --------------------------------
 Charge =  0 Multiplicity = 1

                         Standard orientation:
 ---------------------------------------------------------------------
 Center     Atomic      Atomic             Coordinates (Angstroms)
 Number     Number       Type             X           Y           Z
 ---------------------------------------------------------------------
      1          6           0        3.531775   -0.711968    0.379773
      2          6           0       -1.661137    0.858924   -0.828441
      3          6           0       -3.185133   -0.814484    0.918463
      4          8           0       -3.072661    0.992909   -0.708731
      5          8           0        1.270026    0.933314   -0.248235
      6          6           0        2.280883    1.426989    0.634222
      7          8           0        0.085454   -0.872876   -0.985036
      8          6           0        3.630111    0.810202    0.312361
      9          6           0       -1.682149   -1.058609    0.762211
     10          6           0        1.100984   -0.471561   -0.112673
     11          6           0       -3.517619    0.632923    0.599281
     12          6           0       -1.275655   -0.605126   -0.631394
     13          6           0        2.373674   -1.202023   -0.489262
     14          1           0        4.463842   -1.176771    0.061115
     15          1           0        3.356182   -1.014792    1.415501
     16          1           0       -1.170572    1.492986   -0.085488
     17          1           0       -1.386518    1.197462   -1.825986
     18          1           0       -3.740890   -1.466068    0.241116
     19          1           0       -3.506245   -1.039627    1.935509
     20          1           0        1.995692    1.198600    1.667486
     21          1           0        2.288767    2.507387    0.509261
     22          1           0        3.930797    1.120749   -0.690847
     23          1           0        4.373740    1.186552    1.015419
     24          1           0       -1.152550   -0.474479    1.518050
     25          1           0       -1.433943   -2.110430    0.907625
     26          1           0        0.835787   -0.685965    0.928209
     27          1           0       -4.591540    0.806248    0.614139
     28          1           0       -3.044830    1.298989    1.329883
     29          1           0       -1.845061   -1.184753   -1.360488
     30          1           0        2.576018   -1.001307   -1.544064
     31          1           0        2.214346   -2.273152   -0.367675
 ---------------------------------------------------------------------

 SCF Done:  E(RM062X) =  -617.504220702     A.U. after    1 cycles

 The electronic state is 1-A.
 Alpha  occ. eigenvalues --  -19.63800 -19.63025 -19.62870 -10.63200 -10.58470
 Alpha  occ. eigenvalues --  -10.57485 -10.57417 -10.57302 -10.52675 -10.52628
 Alpha  occ. eigenvalues --  -10.52521 -10.52402 -10.52226  -1.19888  -1.16198
 Alpha  occ. eigenvalues --   -1.13603  -0.90488  -0.89466  -0.86755  -0.83783
 Alpha  occ. eigenvalues --   -0.74739  -0.73370  -0.72576  -0.69632  -0.65808
 Alpha  occ. eigenvalues --   -0.64626  -0.59460  -0.56882  -0.56752  -0.55706
 Alpha  occ. eigenvalues --   -0.54110  -0.52817  -0.51587  -0.50710  -0.49860
 Alpha  occ. eigenvalues --   -0.48078  -0.46563  -0.45683  -0.45228  -0.44294
 Alpha  occ. eigenvalues --   -0.43348  -0.41261  -0.39991  -0.39505  -0.39008
 Alpha  occ. eigenvalues --   -0.38106  -0.37860  -0.37113  -0.35663  -0.32442
 Alpha  occ. eigenvalues --   -0.31814
 Alpha virt. eigenvalues --    0.00457   0.01261   0.01319   0.01496   0.02602
 Alpha virt. eigenvalues --    0.02898   0.03109   0.03899   0.04024   0.04789
 Alpha virt. eigenvalues --    0.05077   0.05361   0.06050   0.06498   0.07423

 Mulliken charges:
               1
     1  C   -0.363748
     2  C   -0.337637
     3  C   -0.459218
     4  O   -0.400749
     5  O   -0.404108
     6  C   -0.148739
     7  O   -0.401370
     8  C   -0.382722
     9  C   -0.150754
    10  C    0.091572
    11  C   -0.186568
    12  C   -0.117517
    13  C   -0.299861
    14  H    0.198105
    15  H    0.171872
    16  H    0.240389
    17  H    0.216795
    18  H    0.180694
    19  H    0.171264
    20  H    0.162394
    21  H    0.199223
    22  H    0.164358
    23  H    0.181587
    24  H    0.202643
    25  H    0.196326
    26  H    0.256958
    27  H    0.223259
    28  H    0.147945
    29  H    0.272663
    30  H    0.197007
    31  H    0.177936
 Sum of Mulliken charges =  -0.00000

 Dipole moment (field-independent basis, Debye):
    X=              2.0433    Y=             -1.2737    Z=              4.8820  Tot=              5.4435
 Quadrupole moment (field-independent basis, Debye-Ang):
   XX=            -73.6488   YY=            -80.6833   ZZ=            -80.9052
   XY=              5.2108   XZ=             -3.8944   YZ=              1.4612

  Exact polarizability: 186.092   2.769 171.614  -0.438   1.188 169.761
 Approx polarizability: 147.915   2.085 141.435   0.606   0.709 143.513

 ******    1 imaginary frequencies (negative Signs) ******

                      1                      2                      3
                      A                      A                      A
 Frequencies --    -45.8314                74.5157                83.3141
 Red. masses --      3.2571                 4.0031                 3.8260
 Frc consts  --      0.0040                 0.0131                 0.0156
 IR Inten    --      0.8656                 1.8339                 1.0700

                      4                      5                      6
                      A                      A                      A
 Frequencies --    152.7829               197.1385               246.0681
 Red. masses --      2.8558                 3.1908                 2.3288
 Frc consts  --      0.0393                 0.0731                 0.0831
 IR Inten    --      2.1287                 0.9701                 5.6275

                      7                      8                      9
                      A                      A                      A
 Frequencies --    257.5662               279.0125               329.3024
 Red. masses --      2.0341                 3.7426                 2.5015
 Frc consts  --      0.0795                 0.1717                 0.1598
 IR Inten    --      6.6208                 4.6828                17.5844

                     10                     11                     12
                      A                      A                      A
 Frequencies --    363.4439               394.1754               429.7539
 Red. masses --      2.2972                 2.9862                 2.7388
 Frc consts  --      0.1788                 0.2734                 0.2980
 IR Inten    --      8.2605                 5.8160                 6.4232

                     13                     14                     15
                      A                      A                      A
 Frequencies --    445.5409               465.9766               478.1070
 Red. masses --      3.5352                 3.5406                 3.3560
 Frc consts  --      0.4135                 0.4530                 0.4520
 IR Inten    --      4.3243                 2.8837                 1.0639

                     16                     17                     18
                      A                      A                      A
 Frequencies --    536.2713               550.7891               596.7804
 Red. masses --      2.1743                 2.3571                 2.0970
 Frc consts  --      0.3684                 0.4213                 0.4400
 IR Inten    --      6.8702                 6.6255                 8.1090

                     19                     20                     21
                      A                      A                      A
 Frequencies --    656.0296               826.7297               834.7444
 Red. masses --      3.8039                 2.0998                 1.7987
 Frc consts  --      0.9646                 0.8456                 0.7384
 IR Inten    --      5.5128                 6.3460                 8.3158

                     22                     23                     24
                      A                      A                      A
 Frequencies --    863.6365               877.9751               880.6102
 Red. masses --      1.9097                 1.5342                 1.8676
 Frc consts  --      0.8392                 0.6968                 0.8533
 IR Inten    --     14.7900                12.9536                 8.6681

                     25                     26                     27
                      A                      A                      A
 Frequencies --    893.7572               933.2658               942.7600
 Red. masses --      2.2272                 2.4515                 2.4056
 Frc consts  --      1.0482                 1.2580                 1.2597
 IR Inten    --     18.8190                66.1357                48.5194

                     28                     29                     30
                      A                      A                      A
 Frequencies --    958.7539               984.3796               996.5415
 Red. masses --      2.1894                 1.5023                 1.7903
 Frc consts  --      1.1857                 0.8577                 1.0475
 IR Inten    --      7.4617                10.0362                42.6991

                     31                     32                     33
                      A                      A                      A
 Frequencies --   1004.9363              1046.4223              1057.2656
 Red. masses --      2.1060                 1.6630                 1.5396
 Frc consts  --      1.2531                 1.0729                 1.0140
 IR Inten    --      9.5414                23.4445                88.6466

                     34                     35                     36
                      A                      A                      A
 Frequencies --   1078.3815              1096.0270              1118.4320
 Red. masses --      3.2012                 2.3772                 4.0615
 Frc consts  --      2.1933                 1.6825                 2.9934
 IR Inten    --     54.4807                66.3253               282.7793

                     37                     38                     39
                      A                      A                      A
 Frequencies --   1137.3075              1148.3926              1167.5848
 Red. masses --      3.9186                 2.5769                 2.3454
 Frc consts  --      2.9863                 2.0023                 1.8839
 IR Inten    --    135.6208                23.2845                24.4745

                     40                     41                     42
                      A                      A                      A
 Frequencies --   1191.1581              1202.2362              1208.6224
 Red. masses --      2.1345                 1.4541                 2.4647
 Frc consts  --      1.7844                 1.2383                 2.1212
 IR Inten    --     17.8057                 5.1591               304.6717

                     43                     44                     45
                      A                      A                      A
 Frequencies --   1214.8838              1239.6559              1247.8765
 Red. masses --      1.5210                 1.6052                 1.7880
 Frc consts  --      1.3227                 1.4534                 1.6405
 IR Inten    --      5.9275                39.1968                49.1775

                     46                     47                     48
                      A                      A                      A
 Frequencies --   1280.5591              1305.1093              1316.1255
 Red. masses --      1.2289                 1.2097                 1.1994
 Frc consts  --      1.1873                 1.2140                 1.2240
 IR Inten    --      4.4808                22.3365                32.2883

                     49                     50                     51
                      A                      A                      A
 Frequencies --   1327.7713              1340.5635              1353.1253
 Red. masses --      1.2931                 1.2692                 1.3251
 Frc consts  --      1.3432                 1.3439                 1.4295
 IR Inten    --     13.7208                14.0692                 4.3950

                     52                     53                     54
                      A                      A                      A
 Frequencies --   1367.9098              1377.6360              1381.1039
 Red. masses --      1.4352                 1.3535                 1.4015
 Frc consts  --      1.5822                 1.5134                 1.5750
 IR Inten    --      0.2258                14.9204                 0.7075

                     55                     56                     57
                      A                      A                      A
 Frequencies --   1385.9122              1395.5647              1400.0640
 Red. masses --      1.4967                 1.2523                 1.4154
 Frc consts  --      1.6938                 1.4370                 1.6347
 IR Inten    --      4.2543                13.0415                12.9288

                     58                     59                     60
                      A                      A                      A
 Frequencies --   1418.6863              1422.0854              1436.9962
 Red. masses --      1.4057                 1.3318                 1.3205
 Frc consts  --      1.6669                 1.5868                 1.6066
 IR Inten    --      5.6182                10.5352                20.8130

                     61                     62                     63
                      A                      A                      A
 Frequencies --   1444.4038              1470.4343              1472.5831
 Red. masses --      1.4797                 1.1065                 1.0954
 Frc consts  --      1.8188                 1.4096                 1.3995
 IR Inten    --     61.9967                 5.6642                 7.5513

                     64                     65                     66
                      A                      A                      A
 Frequencies --   1474.0698              1488.0253              1490.1612
 Red. masses --      1.1139                 1.1180                 1.1296
 Frc consts  --      1.4261                 1.4585                 1.4780
 IR Inten    --     10.8616                 6.1160                32.1278

                     67                     68                     69
                      A                      A                      A
 Frequencies --   1497.3866              1505.9590              1506.2733
 Red. masses --      1.0854                 1.1012                 1.0956
 Frc consts  --      1.4339                 1.4715                 1.4646
 IR Inten    --      1.2301                 6.3267                 7.8829

                     70                     71                     72
                      A                      A                      A
 Frequencies --   3035.4284              3035.6829              3051.1737
 Red. masses --      1.0702                 1.0697                 1.0793
 Frc consts  --      5.8098                 5.8080                 5.9203
 IR Inten    --     28.0361               103.6322                33.7521

                     73                     74                     75
                      A                      A                      A
 Frequencies --   3061.2425              3066.2932              3068.8591
 Red. masses --      1.0685                 1.0636                 1.0637
 Frc consts  --      5.8997                 5.8920                 5.9021
 IR Inten    --     23.2522                45.0512                24.4681

                     76                     77                     78
                      A                      A                      A
 Frequencies --   3070.0460              3073.2518              3074.0538
 Red. masses --      1.0623                 1.0636                 1.0619
 Frc consts  --      5.8993                 5.9189                 5.9124
 IR Inten    --     25.5555                60.9744                42.2294

                     79                     80                     81
                      A                      A                      A
 Frequencies --   3086.4504              3118.6235              3119.4795
 Red. masses --      1.0820                 1.0970                 1.1010
 Frc consts  --      6.0727                 6.2862                 6.3128
 IR Inten    --     62.1813                40.0333                36.3828

                     82                     83                     84
                      A                      A                      A
 Frequencies --   3121.8954              3125.8095              3129.3945
 Red. masses --      1.1017                 1.1039                 1.1036
 Frc consts  --      6.3261                 6.3551                 6.3675
 IR Inten    --     61.1710                60.4393                53.8488

                     85                     86                     87
                      A                      A                      A
 Frequencies --   3138.3932              3140.8115              3142.3105
 Red. masses --      1.0967                 1.0959                 1.1035
 Frc consts  --      6.3643                 6.3695                 6.4199
 IR Inten    --     43.4430                39.4488                43.7018

 - Thermochemistry -
 -------------------
 Temperature   298.150 Kelvin.  Pressure   1.00000 Atm.
 Atom     1 has atomic number  6 and mass  12.00000

 Molecular mass:   186.12559 amu.
 Principal axes and moments of inertia in atomic units:
                           1         2         3
     Eigenvalues --   959.284504410.769224699.55004
           X            0.99998   0.00481  -0.00480
           Y           -0.00478   0.99998   0.00472
           Z            0.00483  -0.00470   0.99998
 This molecule is an asymmetric top.
 Rotational symmetry number  1.
 Warning -- assumption of classical behavior for rotation
           may cause significant error
 Rotational temperatures (Kelvin)      0.09029     0.01964     0.01843
 Rotational constants (GHZ):           1.88134     0.40917     0.38402
    1 imaginary frequencies ignored.
 Zero-point vibrational energy     736939.2 (Joules/Mol)
                                  176.13270 (Kcal/Mol)
 Warning -- explicit consideration of  17 degrees of freedom as
           vibrations may cause significant error
 Vibrational temperatures:    107.21   119.87   219.82   283.64   354.04
          (Kelvin)            370.58   401.44   473.79   522.91   567.13
                              618.32   641.03   670.44   687.89   771.57
                              792.46   858.63   943.88  1189.48  1201.01
                             1242.58  1263.21  1267.00  1285.92  1342.76
                             1356.42  1379.43  1416.30  1433.80  1445.88
                             1505.57  1521.17  1551.55  1576.94  1609.17
                             1636.33  1652.28  1679.89  1713.81  1729.75
                             1738.94  1747.95  1783.59  1795.42  1842.44
                             1877.76  1893.61  1910.37  1928.77  1946.85
                             1968.12  1982.11  1987.10  1994.02  2007.91
                             2014.38  2041.17  2046.06  2067.52  2078.17
                             2115.63  2118.72  2120.86  2140.94  2144.01
                             2154.41  2166.74  2167.19  4367.30  4367.67
                             4389.96  4404.45  4411.71  4415.40  4417.11
                             4421.72  4422.88  4440.71  4487.00  4488.24
                             4491.71  4497.34  4502.50  4515.45  4518.93
                             4521.08

 Zero-point correction=                           0.280685 (Hartree/Particle)
 Thermal correction to Energy=                    0.291548
 Thermal correction to Enthalpy=                  0.292492
 Thermal correction to Gibbs Free Energy=         0.244154
 Sum of electronic and zero-point Energies=           -617.223535
 Sum of electronic and thermal Energies=              -617.212673
 Sum of electronic and thermal Enthalpies=            -617.211728
 Sum of electronic and thermal Free Energies=         -617.260067

                     E (Thermal)             CV                S
                      KCal/Mol        Cal/Mol-Kelvin    Cal/Mol-Kelvin
 Total                  182.949             44.854            101.736
 Electronic               0.000              0.000              0.000
 Translational            0.889              2.981             41.570
 Rotational               0.889              2.981             31.364
 Vibrational            181.172             38.892             28.802
 Vibration     1          0.599              1.966              4.030
 Vibration     2          0.600              1.961              3.811
 Vibration     3          0.619              1.900              2.637
 Vibration     4          0.637              1.844              2.160
 Vibration     5          0.661              1.769              1.759
 Vibration     6          0.667              1.750              1.678
 Vibration     7          0.679              1.712              1.540
 Vibration     8          0.712              1.617              1.264
 Vibration     9          0.737              1.548              1.107
 Vibration    10          0.761              1.483              0.984
 Vibration    11          0.791              1.405              0.859
 Vibration    12          0.805              1.371              0.809
 Vibration    13          0.823              1.326              0.749
 Vibration    14          0.835              1.299              0.715
 Vibration    15          0.891              1.170              0.573
 Vibration    16          0.906              1.138              0.543
 Vibration    17          0.955              1.039              0.455

 Optimization completed.
    -- Stationary point found.
 Normal termination of Gaussian 16 at Sun Mar 10 05:28:42 2019.
