 Gaussian 16, Revision B.01,
 Gaussian 16:  ES64L-G16RevB.01 20-Dec-2017

 ----------------------------------------------------------------------
 #M062X/6-311++G(2d,2p) opt=ModRedundant freq=noraman SCRF=(SMD,solvent
 =water)
 ----------------------------------------------------------------------

 --------------------------------
 4c1_b1_4e_4c1_PSI.inp_extract_15
 --------------------------------
 Symbolic Z-matrix:
 Charge =  0 Multiplicity = 1

 SCF Done:  E(RM062X) =  -617.502824967     A.U. after   13 cycles
 SCF Done:  E(RM062X) =  -617.504413729     A.U. after   10 cycles
 SCF Done:  E(RM062X) =  -617.504703821     A.U. after   11 cycles
 SCF Done:  E(RM062X) =  -617.504876371     A.U. after   10 cycles
 SCF Done:  E(RM062X) =  -617.504887761     A.U. after    9 cycles
 SCF Done:  E(RM062X) =  -617.504888112     A.U. after    7 cycles
 Optimization completed.
    -- Stationary point found.
 Normal termination of Gaussian 16 at Sun Mar 10 04:10:14 2019.

 ----------------------------------------------------------------------
 #N Geom=AllCheck Guess=TCheck SCRF=Check GenChk RM062X/6-311++G(2d,2p)
  Freq
 ----------------------------------------------------------------------

 Structure from the checkpoint file:  "4c1_b1_4e_4c1_PSI.inp_extract_15.chk"
 --------------------------------
 4c1_b1_4e_4c1_PSI.inp_extract_15
 --------------------------------
 Charge =  0 Multiplicity = 1

                         Standard orientation:
 ---------------------------------------------------------------------
 Center     Atomic      Atomic             Coordinates (Angstroms)
 Number     Number       Type             X           Y           Z
 ---------------------------------------------------------------------
      1          6           0        3.593566   -0.483091    0.374237
      2          6           0       -1.748172    0.259162   -1.221467
      3          6           0       -3.034106   -0.226448    1.283047
      4          8           0       -3.149155    0.436765   -1.055098
      5          8           0        1.131017    0.796922   -0.344661
      6          6           0        2.141239    1.542021    0.340367
      7          8           0        0.095126   -1.223519   -0.609799
      8          6           0        3.523183    1.000916    0.021042
      9          6           0       -1.537034   -0.512218    1.144082
     10          6           0        1.125931   -0.562866    0.064557
     11          6           0       -3.465005    0.829682    0.280412
     12          6           0       -1.258959   -0.862121   -0.308743
     13          6           0        2.437178   -1.235407   -0.284566
     14          1           0        4.545797   -0.911581    0.064603
     15          1           0        3.523992   -0.597556    1.459206
     16          1           0       -1.229090    1.193880   -0.994547
     17          1           0       -1.577980   -0.001676   -2.264594
     18          1           0       -3.605763   -1.139746    1.106011
     19          1           0       -3.264632    0.120308    2.290409
     20          1           0        1.951662    1.490952    1.418687
     21          1           0        2.025366    2.574318    0.018212
     22          1           0        3.719394    1.140416   -1.044450
     23          1           0        4.268951    1.571406    0.575346
     24          1           0       -0.976373    0.383292    1.425288
     25          1           0       -1.230430   -1.326541    1.801032
     26          1           0        0.964615   -0.592781    1.148335
     27          1           0       -4.541352    0.985687    0.305842
     28          1           0       -2.967356    1.781786    0.497028
     29          1           0       -1.834666   -1.754797   -0.562293
     30          1           0        2.543445   -1.223449   -1.371769
     31          1           0        2.401592   -2.273044    0.046309
 ---------------------------------------------------------------------

 SCF Done:  E(RM062X) =  -617.504888112     A.U. after    1 cycles

 The electronic state is 1-A.
 Alpha  occ. eigenvalues --  -19.63748 -19.63020 -19.62959 -10.63198 -10.58439
 Alpha  occ. eigenvalues --  -10.57514 -10.57403 -10.57223 -10.52743 -10.52635
 Alpha  occ. eigenvalues --  -10.52534 -10.52414 -10.52243  -1.19927  -1.16207
 Alpha  occ. eigenvalues --   -1.13588  -0.90533  -0.89422  -0.86799  -0.83756
 Alpha  occ. eigenvalues --   -0.74852  -0.73298  -0.72614  -0.69551  -0.65706
 Alpha  occ. eigenvalues --   -0.64645  -0.59412  -0.57101  -0.56576  -0.55632
 Alpha  occ. eigenvalues --   -0.54175  -0.52680  -0.51936  -0.50826  -0.49847
 Alpha  occ. eigenvalues --   -0.48025  -0.46249  -0.45693  -0.45127  -0.44292
 Alpha  occ. eigenvalues --   -0.43802  -0.41074  -0.39810  -0.39769  -0.39060
 Alpha  occ. eigenvalues --   -0.38052  -0.37591  -0.37078  -0.35789  -0.32593
 Alpha  occ. eigenvalues --   -0.31733
 Alpha virt. eigenvalues --    0.00443   0.01268   0.01341   0.01471   0.02648
 Alpha virt. eigenvalues --    0.02911   0.03112   0.03901   0.04007   0.04802
 Alpha virt. eigenvalues --    0.05170   0.05497   0.06089   0.06315   0.07498

 Mulliken charges:
               1
     1  C   -0.393260
     2  C   -0.343610
     3  C   -0.452407
     4  O   -0.402200
     5  O   -0.399425
     6  C   -0.130373
     7  O   -0.422820
     8  C   -0.375810
     9  C   -0.213272
    10  C    0.023089
    11  C   -0.181629
    12  C    0.055566
    13  C   -0.348950
    14  H    0.203021
    15  H    0.171708
    16  H    0.231010
    17  H    0.199626
    18  H    0.182632
    19  H    0.171801
    20  H    0.155077
    21  H    0.199082
    22  H    0.162647
    23  H    0.181491
    24  H    0.235834
    25  H    0.183608
    26  H    0.273144
    27  H    0.225472
    28  H    0.147779
    29  H    0.279938
    30  H    0.196373
    31  H    0.184856
 Sum of Mulliken charges =   0.00000

 Dipole moment (field-independent basis, Debye):
    X=              2.5205    Y=              0.7976    Z=              4.7242  Tot=              5.4136
 Quadrupole moment (field-independent basis, Debye-Ang):
   XX=            -75.0775   YY=            -79.3059   ZZ=            -81.0586
   XY=              1.8146   XZ=             -5.8513   YZ=              0.5416

  Exact polarizability: 185.258   1.569 172.187  -1.415   1.748 169.978
 Approx polarizability: 147.512   1.781 142.705  -0.044   1.761 142.668

                      1                      2                      3
                      A                      A                      A
 Frequencies --     43.1297                66.8470                85.9009
 Red. masses --      3.1140                 4.4723                 3.7294
 Frc consts  --      0.0034                 0.0118                 0.0162
 IR Inten    --      0.7174                 1.7793                 1.0998

                      4                      5                      6
                      A                      A                      A
 Frequencies --    156.1933               192.1448               247.4216
 Red. masses --      2.9342                 3.0977                 2.5069
 Frc consts  --      0.0422                 0.0674                 0.0904
 IR Inten    --      3.4512                 0.6410                 6.4017

                      7                      8                      9
                      A                      A                      A
 Frequencies --    258.7193               289.5136               332.2704
 Red. masses --      2.1137                 3.3392                 2.4898
 Frc consts  --      0.0834                 0.1649                 0.1620
 IR Inten    --      7.4001                 2.9897                19.2341

                     10                     11                     12
                      A                      A                      A
 Frequencies --    360.9980               384.8206               432.2226
 Red. masses --      2.3641                 2.8527                 2.7240
 Frc consts  --      0.1815                 0.2489                 0.2998
 IR Inten    --     10.2945                 5.2450                 4.0998

                     13                     14                     15
                      A                      A                      A
 Frequencies --    446.4089               461.4963               475.0443
 Red. masses --      3.0402                 3.7824                 3.6463
 Frc consts  --      0.3570                 0.4746                 0.4848
 IR Inten    --      3.5774                 3.5361                 0.9842

                     16                     17                     18
                      A                      A                      A
 Frequencies --    538.7368               547.1526               599.2946
 Red. masses --      2.0558                 2.4091                 2.1045
 Frc consts  --      0.3516                 0.4249                 0.4453
 IR Inten    --      7.7056                 9.4344                 6.2564

                     19                     20                     21
                      A                      A                      A
 Frequencies --    656.5179               825.5720               834.9779
 Red. masses --      3.9782                 2.1213                 1.7855
 Frc consts  --      1.0103                 0.8519                 0.7335
 IR Inten    --      6.7277                 7.0299                 7.6261

                     22                     23                     24
                      A                      A                      A
 Frequencies --    863.0603               879.7988               882.6825
 Red. masses --      1.9307                 1.8582                 1.5185
 Frc consts  --      0.8473                 0.8475                 0.6971
 IR Inten    --     15.3947                11.9751                12.3443

                     25                     26                     27
                      A                      A                      A
 Frequencies --    894.8187               933.7468               944.7468
 Red. masses --      2.2397                 2.3945                 2.3782
 Frc consts  --      1.0566                 1.2300                 1.2506
 IR Inten    --     16.3315                62.7231                41.7319

                     28                     29                     30
                      A                      A                      A
 Frequencies --    959.0699               985.1065               993.2961
 Red. masses --      2.2047                 1.5885                 1.9251
 Frc consts  --      1.1948                 0.9082                 1.1191
 IR Inten    --      7.0515                20.1629                30.7101

                     31                     32                     33
                      A                      A                      A
 Frequencies --   1005.0193              1049.4861              1058.2753
 Red. masses --      1.8563                 1.6733                 1.5360
 Frc consts  --      1.1047                 1.0859                 1.0135
 IR Inten    --      7.1544                24.8286                68.3780

                     34                     35                     36
                      A                      A                      A
 Frequencies --   1076.1547              1098.0814              1121.8223
 Red. masses --      3.1760                 2.5311                 3.8121
 Frc consts  --      2.1671                 1.7982                 2.8266
 IR Inten    --     71.2209                71.8265               250.0847

                     37                     38                     39
                      A                      A                      A
 Frequencies --   1139.7544              1151.8544              1167.5585
 Red. masses --      3.7929                 2.4570                 2.3513
 Frc consts  --      2.9030                 1.9207                 1.8885
 IR Inten    --    142.8690                 8.8913                26.2163

                     40                     41                     42
                      A                      A                      A
 Frequencies --   1189.8088              1200.5766              1211.5961
 Red. masses --      2.0601                 1.4779                 1.6875
 Frc consts  --      1.7182                 1.2551                 1.4595
 IR Inten    --     19.4204                 6.9690               115.6496

                     43                     44                     45
                      A                      A                      A
 Frequencies --   1216.3387              1240.2332              1251.7553
 Red. masses --      2.0728                 1.6642                 1.7569
 Frc consts  --      1.8068                 1.5082                 1.6220
 IR Inten    --    201.4431                43.3115                62.2640

                     46                     47                     48
                      A                      A                      A
 Frequencies --   1279.3216              1301.6951              1315.9196
 Red. masses --      1.2272                 1.2316                 1.1997
 Frc consts  --      1.1834                 1.2296                 1.2240
 IR Inten    --      4.8315                18.2227                34.3171

                     49                     50                     51
                      A                      A                      A
 Frequencies --   1325.3676              1344.8969              1353.3354
 Red. masses --      1.2444                 1.2874                 1.3383
 Frc consts  --      1.2879                 1.3719                 1.4441
 IR Inten    --     14.3807                17.5839                 1.2337

                     52                     53                     54
                      A                      A                      A
 Frequencies --   1367.4254              1376.0433              1380.9651
 Red. masses --      1.4248                 1.3482                 1.3859
 Frc consts  --      1.5697                 1.5040                 1.5572
 IR Inten    --      0.2710                22.6739                 1.5201

                     55                     56                     57
                      A                      A                      A
 Frequencies --   1385.8396              1399.6828              1403.6219
 Red. masses --      1.5209                 1.2516                 1.3936
 Frc consts  --      1.7210                 1.4447                 1.6177
 IR Inten    --      2.8798                10.9309                16.4786

                     58                     59                     60
                      A                      A                      A
 Frequencies --   1417.6500              1422.4373              1433.1400
 Red. masses --      1.4188                 1.3293                 1.3485
 Frc consts  --      1.6800                 1.5847                 1.6319
 IR Inten    --      3.5510                 5.4657                25.5979

                     61                     62                     63
                      A                      A                      A
 Frequencies --   1444.4239              1471.5319              1471.9246
 Red. masses --      1.5079                 1.0979                 1.1076
 Frc consts  --      1.8536                 1.4008                 1.4139
 IR Inten    --     60.9156                13.2752                 0.6540

                     64                     65                     66
                      A                      A                      A
 Frequencies --   1474.0557              1488.2546              1490.3300
 Red. masses --      1.1069                 1.1175                 1.1323
 Frc consts  --      1.4171                 1.4584                 1.4818
 IR Inten    --      7.9666                10.9184                28.1625

                     67                     68                     69
                      A                      A                      A
 Frequencies --   1498.4785              1504.2126              1506.1688
 Red. masses --      1.0849                 1.0968                 1.1014
 Frc consts  --      1.4353                 1.4622                 1.4722
 IR Inten    --      1.2363                 6.2867                 7.2064

                     70                     71                     72
                      A                      A                      A
 Frequencies --   3034.9550              3035.9364              3043.7491
 Red. masses --      1.0705                 1.0696                 1.0811
 Frc consts  --      5.8095                 5.8086                 5.9012
 IR Inten    --     48.4109                77.4828                59.9927

                     73                     74                     75
                      A                      A                      A
 Frequencies --   3061.8394              3062.0005              3063.5231
 Red. masses --      1.0649                 1.0682                 1.0656
 Frc consts  --      5.8821                 5.9011                 5.8926
 IR Inten    --     12.8660                36.9991                30.5430

                     76                     77                     78
                      A                      A                      A
 Frequencies --   3069.2688              3073.6602              3074.4396
 Red. masses --      1.0614                 1.0619                 1.0623
 Frc consts  --      5.8913                 5.9106                 5.9162
 IR Inten    --     40.5434                53.1245                26.4622

                     79                     80                     81
                      A                      A                      A
 Frequencies --   3081.6650              3117.9025              3118.2900
 Red. masses --      1.0810                 1.1004                 1.0984
 Frc consts  --      6.0483                 6.3027                 6.2929
 IR Inten    --     77.9471                35.1092                42.9660

                     82                     83                     84
                      A                      A                      A
 Frequencies --   3122.1756              3125.3180              3130.6566
 Red. masses --      1.1007                 1.1032                 1.1035
 Frc consts  --      6.3215                 6.3491                 6.3722
 IR Inten    --     60.0478                55.5390                53.0373

                     85                     86                     87
                      A                      A                      A
 Frequencies --   3139.0033              3140.9956              3141.7070
 Red. masses --      1.0969                 1.0967                 1.1020
 Frc consts  --      6.3681                 6.3746                 6.4083
 IR Inten    --     43.3245                43.5867                36.1204

 - Thermochemistry -
 -------------------
 Temperature   298.150 Kelvin.  Pressure   1.00000 Atm.
 Atom     1 has atomic number  6 and mass  12.00000

 Molecular mass:   186.12559 amu.
 Principal axes and moments of inertia in atomic units:
                           1         2         3
     Eigenvalues --   963.415914377.982434538.12891
           X            0.99997   0.00071  -0.00734
           Y           -0.00071   1.00000   0.00086
           Z            0.00734  -0.00085   0.99997
 This molecule is an asymmetric top.
 Rotational symmetry number  1.
 Warning -- assumption of classical behavior for rotation
           may cause significant error
 Rotational temperatures (Kelvin)      0.08990     0.01978     0.01909
 Rotational constants (GHZ):           1.87327     0.41223     0.39768
 Zero-point vibrational energy     737161.8 (Joules/Mol)
                                  176.18590 (Kcal/Mol)
 Warning -- explicit consideration of  18 degrees of freedom as
           vibrations may cause significant error
 Vibrational temperatures:     62.05    96.18   123.59   224.73   276.45
          (Kelvin)            355.98   372.24   416.55   478.06   519.40
                              553.67   621.87   642.28   663.99   683.48
                              775.12   787.23   862.25   944.58  1187.81
                             1201.35  1241.75  1265.83  1269.98  1287.44
                             1343.45  1359.28  1379.89  1417.35  1429.13
                             1446.00  1509.98  1522.62  1548.35  1579.89
                             1614.05  1639.85  1657.26  1679.86  1711.87
                             1727.36  1743.22  1750.04  1784.42  1801.00
                             1840.66  1872.85  1893.31  1906.91  1935.01
                             1947.15  1967.42  1979.82  1986.90  1993.91
                             2013.83  2019.50  2039.68  2046.57  2061.97
                             2078.20  2117.21  2117.77  2120.84  2141.27
                             2144.25  2155.98  2164.23  2167.04  4366.62
                             4368.04  4379.28  4405.30  4405.54  4407.73
                             4415.99  4422.31  4423.43  4433.83  4485.97
                             4486.52  4492.11  4496.64  4504.32  4516.33
                             4519.19  4520.22

 Zero-point correction=                           0.280770 (Hartree/Particle)
 Thermal correction to Energy=                    0.292486
 Thermal correction to Enthalpy=                  0.293430
 Thermal correction to Gibbs Free Energy=         0.242629
 Sum of electronic and zero-point Energies=           -617.224118
 Sum of electronic and thermal Energies=              -617.212402
 Sum of electronic and thermal Enthalpies=            -617.211458
 Sum of electronic and thermal Free Energies=         -617.262259

                     E (Thermal)             CV                S
                      KCal/Mol        Cal/Mol-Kelvin    Cal/Mol-Kelvin
 Total                  183.538             46.822            106.921
 Electronic               0.000              0.000              0.000
 Translational            0.889              2.981             41.570
 Rotational               0.889              2.981             31.327
 Vibrational            181.760             40.861             34.024
 Vibration     1          0.595              1.980              5.110
 Vibration     2          0.598              1.970              4.244
 Vibration     3          0.601              1.959              3.751
 Vibration     4          0.620              1.896              2.595
 Vibration     5          0.634              1.851              2.207
 Vibration     6          0.661              1.767              1.749
 Vibration     7          0.668              1.748              1.670
 Vibration     8          0.686              1.693              1.477
 Vibration     9          0.714              1.611              1.249
 Vibration    10          0.735              1.553              1.118
 Vibration    11          0.754              1.503              1.020
 Vibration    12          0.793              1.400              0.851
 Vibration    13          0.806              1.369              0.807
 Vibration    14          0.819              1.335              0.762
 Vibration    15          0.832              1.305              0.724
 Vibration    16          0.894              1.164              0.568
 Vibration    17          0.902              1.146              0.550
 Vibration    18          0.957              1.033              0.451

 Optimization completed.
    -- Stationary point found.
 Normal termination of Gaussian 16 at Sun Mar 10 05:14:10 2019.
