 Gaussian 16, Revision B.01,
 Gaussian 16:  ES64L-G16RevB.01 20-Dec-2017

 ----------------------------------------------------------------------
 #M062X/6-311++G(2d,2p) opt=ModRedundant freq=noraman SCRF=(SMD,solvent
 =water)
 ----------------------------------------------------------------------

 --------------------------------
 4c1_b1_4e_4c1_PSI.inp_extract_21
 --------------------------------
 Symbolic Z-matrix:
 Charge =  0 Multiplicity = 1

 SCF Done:  E(RM062X) =  -617.505248773     A.U. after   12 cycles
 SCF Done:  E(RM062X) =  -617.506947901     A.U. after   10 cycles
 SCF Done:  E(RM062X) =  -617.507096720     A.U. after   10 cycles
 SCF Done:  E(RM062X) =  -617.507145115     A.U. after    9 cycles
 SCF Done:  E(RM062X) =  -617.507147373     A.U. after    7 cycles
 SCF Done:  E(RM062X) =  -617.507147588     A.U. after    6 cycles
 Optimization completed.
    -- Stationary point found.
 Normal termination of Gaussian 16 at Sun Mar 10 05:25:31 2019.

 ----------------------------------------------------------------------
 #N Geom=AllCheck Guess=TCheck SCRF=Check GenChk RM062X/6-311++G(2d,2p)
  Freq
 ----------------------------------------------------------------------

 Structure from the checkpoint file:  "4c1_b1_4e_4c1_PSI.inp_extract_21.chk"
 --------------------------------
 4c1_b1_4e_4c1_PSI.inp_extract_21
 --------------------------------
 Charge =  0 Multiplicity = 1

                         Standard orientation:
 ---------------------------------------------------------------------
 Center     Atomic      Atomic             Coordinates (Angstroms)
 Number     Number       Type             X           Y           Z
 ---------------------------------------------------------------------
      1          6           0        3.614452   -0.665243    0.599974
      2          6           0       -2.315251   -1.225002   -0.482386
      3          6           0       -2.820208    1.363843    0.603918
      4          8           0       -3.591055   -0.864318    0.020576
      5          8           0        1.460792    0.731837   -0.674651
      6          6           0        2.610921    1.457699   -0.234093
      7          8           0        0.014076   -0.980162   -0.285883
      8          6           0        3.848369    0.578340   -0.254645
      9          6           0       -1.406464    1.014678    0.136286
     10          6           0        1.176400   -0.361452    0.185895
     11          6           0       -3.843838    0.531135   -0.145598
     12          6           0       -1.211389   -0.489254    0.261099
     13          6           0        2.318130   -1.356291    0.177452
     14          1           0        4.453056   -1.355718    0.520612
     15          1           0        3.536296   -0.369815    1.649720
     16          1           0       -2.251051   -0.986322   -1.550452
     17          1           0       -2.210148   -2.300508   -0.352523
     18          1           0       -2.919070    1.168914    1.674017
     19          1           0       -3.025549    2.421630    0.439751
     20          1           0        2.427781    1.834583    0.778834
     21          1           0        2.706870    2.307470   -0.906049
     22          1           0        4.057682    0.287834   -1.286619
     23          1           0        4.701653    1.150452    0.110675
     24          1           0       -1.282369    1.298958   -0.911894
     25          1           0       -0.661670    1.553849    0.720791
     26          1           0        1.013293    0.026238    1.200573
     27          1           0       -4.850808    0.703528    0.228097
     28          1           0       -3.819562    0.770970   -1.214532
     29          1           0       -1.254348   -0.768554    1.319872
     30          1           0        2.408442   -1.753583   -0.836472
     31          1           0        2.072258   -2.179512    0.847860
 ---------------------------------------------------------------------

 SCF Done:  E(RM062X) =  -617.507147588     A.U. after    1 cycles

 The electronic state is 1-A.
 Alpha  occ. eigenvalues --  -19.63801 -19.63180 -19.62870 -10.63305 -10.58480
 Alpha  occ. eigenvalues --  -10.57650 -10.57487 -10.57416 -10.52559 -10.52528
 Alpha  occ. eigenvalues --  -10.52504 -10.52409 -10.52233  -1.20028  -1.16435
 Alpha  occ. eigenvalues --   -1.13753  -0.90490  -0.89392  -0.87079  -0.83607
 Alpha  occ. eigenvalues --   -0.74598  -0.73528  -0.72233  -0.69657  -0.65714
 Alpha  occ. eigenvalues --   -0.64778  -0.59465  -0.58188  -0.56260  -0.55323
 Alpha  occ. eigenvalues --   -0.54433  -0.52628  -0.51766  -0.50937  -0.49776
 Alpha  occ. eigenvalues --   -0.47736  -0.46854  -0.45911  -0.45344  -0.44467
 Alpha  occ. eigenvalues --   -0.42328  -0.41169  -0.40442  -0.39724  -0.39317
 Alpha  occ. eigenvalues --   -0.38795  -0.37435  -0.36974  -0.34826  -0.32852
 Alpha  occ. eigenvalues --   -0.32151
 Alpha virt. eigenvalues --    0.00518   0.01260   0.01354   0.01514   0.02630
 Alpha virt. eigenvalues --    0.02949   0.03002   0.04018   0.04118   0.04762
 Alpha virt. eigenvalues --    0.04976   0.05370   0.05902   0.06248   0.07201

 Mulliken charges:
               1
     1  C   -0.399990
     2  C   -0.287855
     3  C   -0.455269
     4  O   -0.390773
     5  O   -0.411814
     6  C   -0.110374
     7  O   -0.406932
     8  C   -0.385895
     9  C   -0.179306
    10  C    0.169067
    11  C   -0.234080
    12  C   -0.155257
    13  C   -0.287209
    14  H    0.199448
    15  H    0.173310
    16  H    0.202585
    17  H    0.216202
    18  H    0.177621
    19  H    0.176449
    20  H    0.152824
    21  H    0.201109
    22  H    0.163973
    23  H    0.181921
    24  H    0.246963
    25  H    0.172243
    26  H    0.254146
    27  H    0.219484
    28  H    0.158079
    29  H    0.267206
    30  H    0.199202
    31  H    0.172922
 Sum of Mulliken charges =  -0.00000

 Dipole moment (field-independent basis, Debye):
    X=              2.6905    Y=              2.6724    Z=              2.3746  Tot=              4.4743
 Quadrupole moment (field-independent basis, Debye-Ang):
   XX=            -75.6947   YY=            -79.0379   ZZ=            -80.1792
   XY=             -6.6231   XZ=              4.0335   YZ=              0.3524

  Exact polarizability: 185.564   0.245 174.854  -1.343   0.616 167.843
 Approx polarizability: 146.748   0.720 143.764  -1.326   0.153 142.185

                      1                      2                      3
                      A                      A                      A
 Frequencies --     48.3275                63.3221                76.2124
 Red. masses --      3.9025                 3.5064                 3.7487
 Frc consts  --      0.0054                 0.0083                 0.0128
 IR Inten    --      2.1511                 3.0894                 0.5851

                      4                      5                      6
                      A                      A                      A
 Frequencies --    153.9224               210.8095               251.1092
 Red. masses --      2.8455                 3.3752                 2.3598
 Frc consts  --      0.0397                 0.0884                 0.0877
 IR Inten    --      2.0871                 6.4956                 9.2361

                      7                      8                      9
                      A                      A                      A
 Frequencies --    257.0159               265.7030               303.6080
 Red. masses --      2.2083                 3.4110                 2.9449
 Frc consts  --      0.0859                 0.1419                 0.1599
 IR Inten    --      4.0388                 1.4835                 0.1903

                     10                     11                     12
                      A                      A                      A
 Frequencies --    357.0778               390.9264               437.1375
 Red. masses --      2.0815                 2.4276                 3.8930
 Frc consts  --      0.1564                 0.2186                 0.4383
 IR Inten    --      9.9517                15.9748                 3.9764

                     13                     14                     15
                      A                      A                      A
 Frequencies --    449.9751               463.7763               496.7587
 Red. masses --      3.4474                 2.6428                 2.7593
 Frc consts  --      0.4113                 0.3349                 0.4012
 IR Inten    --      6.0332                 0.1749                 2.7512

                     16                     17                     18
                      A                      A                      A
 Frequencies --    522.4093               543.3234               603.6379
 Red. masses --      2.6403                 2.2918                 2.4124
 Frc consts  --      0.4246                 0.3986                 0.5179
 IR Inten    --      0.7432                 8.9419                13.7631

                     19                     20                     21
                      A                      A                      A
 Frequencies --    644.5290               826.6368               836.0117
 Red. masses --      2.8613                 2.1907                 1.7546
 Frc consts  --      0.7003                 0.8820                 0.7225
 IR Inten    --      5.8232                 1.2682                 8.8815

                     22                     23                     24
                      A                      A                      A
 Frequencies --    862.2145               880.3655               882.3553
 Red. masses --      1.9463                 1.3945                 1.8641
 Frc consts  --      0.8525                 0.6368                 0.8551
 IR Inten    --     14.5925                14.5445                13.0864

                     25                     26                     27
                      A                      A                      A
 Frequencies --    899.2460               935.1399               945.0171
 Red. masses --      2.4257                 2.4497                 2.1417
 Frc consts  --      1.1557                 1.2622                 1.1269
 IR Inten    --     11.1082                41.8962                66.7943

                     28                     29                     30
                      A                      A                      A
 Frequencies --    959.3354               986.9991              1001.7814
 Red. masses --      2.0830                 1.9941                 1.4891
 Frc consts  --      1.1295                 1.1446                 0.8805
 IR Inten    --      6.2443                46.5980                 4.4788

                     31                     32                     33
                      A                      A                      A
 Frequencies --   1010.3572              1057.3790              1060.7239
 Red. masses --      2.0961                 1.5441                 1.6925
 Frc consts  --      1.2607                 1.0172                 1.1220
 IR Inten    --      8.3140               103.0719                 4.7726

                     34                     35                     36
                      A                      A                      A
 Frequencies --   1089.5042              1105.8949              1119.7484
 Red. masses --      2.7475                 3.1019                 4.2341
 Frc consts  --      1.9215                 2.2352                 3.1279
 IR Inten    --     76.0905                37.6388               291.3944

                     37                     38                     39
                      A                      A                      A
 Frequencies --   1151.1775              1170.2319              1178.7951
 Red. masses --      2.2509                 2.2641                 2.2780
 Frc consts  --      1.7575                 1.8268                 1.8650
 IR Inten    --      5.4832               115.6021                31.9671

                     40                     41                     42
                      A                      A                      A
 Frequencies --   1184.0764              1204.6439              1208.4531
 Red. masses --      2.3948                 1.5475                 1.6498
 Frc consts  --      1.9782                 1.3232                 1.4195
 IR Inten    --      7.0486                61.4037                51.6817

                     43                     44                     45
                      A                      A                      A
 Frequencies --   1231.4034              1239.9085              1247.6498
 Red. masses --      3.1328                 1.7310                 1.5711
 Frc consts  --      2.7989                 1.5679                 1.4409
 IR Inten    --    304.1142                56.9537                20.5730

                     46                     47                     48
                      A                      A                      A
 Frequencies --   1279.1633              1300.7295              1316.1763
 Red. masses --      1.2380                 1.1708                 1.2039
 Frc consts  --      1.1935                 1.1671                 1.2287
 IR Inten    --      4.2292                13.5754                28.9125

                     49                     50                     51
                      A                      A                      A
 Frequencies --   1332.3316              1343.3387              1351.3613
 Red. masses --      1.2949                 1.2305                 1.2990
 Frc consts  --      1.3543                 1.3082                 1.3977
 IR Inten    --     14.4798                 0.2227                 9.6816

                     52                     53                     54
                      A                      A                      A
 Frequencies --   1355.0528              1368.0103              1380.9498
 Red. masses --      1.2559                 1.4388                 1.4389
 Frc consts  --      1.3587                 1.5865                 1.6167
 IR Inten    --     20.0605                 1.8028                 9.7540

                     55                     56                     57
                      A                      A                      A
 Frequencies --   1384.5759              1392.3288              1408.2217
 Red. masses --      1.4857                 1.2808                 1.4809
 Frc consts  --      1.6781                 1.4629                 1.7303
 IR Inten    --      4.9318                13.1602                18.8844

                     58                     59                     60
                      A                      A                      A
 Frequencies --   1412.5562              1420.2686              1432.4892
 Red. masses --      1.4115                 1.3519                 1.4832
 Frc consts  --      1.6594                 1.6067                 1.7933
 IR Inten    --     18.2708                16.7272                10.9824

                     61                     62                     63
                      A                      A                      A
 Frequencies --   1451.0003              1468.9355              1471.1910
 Red. masses --      1.4664                 1.1075                 1.0992
 Frc consts  --      1.8190                 1.4080                 1.4017
 IR Inten    --     46.4564                 4.5412                 6.9988

                     64                     65                     66
                      A                      A                      A
 Frequencies --   1474.2962              1485.4577              1489.9044
 Red. masses --      1.1295                 1.1402                 1.1282
 Frc consts  --      1.4465                 1.4823                 1.4756
 IR Inten    --     14.0640                13.1867                27.6389

                     67                     68                     69
                      A                      A                      A
 Frequencies --   1499.1742              1504.0835              1506.8314
 Red. masses --      1.0851                 1.0968                 1.1039
 Frc consts  --      1.4369                 1.4619                 1.4768
 IR Inten    --      1.4014                 5.4273                 8.6308

                     70                     71                     72
                      A                      A                      A
 Frequencies --   3017.1802              3032.6241              3034.8773
 Red. masses --      1.0836                 1.0741                 1.0703
 Frc consts  --      5.8117                 5.8202                 5.8080
 IR Inten    --     63.5115                13.8089                72.4720

                     73                     74                     75
                      A                      A                      A
 Frequencies --   3037.2489              3041.8258              3059.6864
 Red. masses --      1.0697                 1.0765                 1.0687
 Frc consts  --      5.8141                 5.8688                 5.8947
 IR Inten    --     75.9058                97.4344                24.8085

                     76                     77                     78
                      A                      A                      A
 Frequencies --   3065.7109              3069.6938              3071.6440
 Red. masses --      1.0647                 1.0619                 1.0615
 Frc consts  --      5.8959                 5.8953                 5.9009
 IR Inten    --     36.7306                36.5310                52.8355

                     79                     80                     81
                      A                      A                      A
 Frequencies --   3073.5907              3118.9245              3122.0468
 Red. masses --      1.0620                 1.0970                 1.1012
 Frc consts  --      5.9112                 6.2872                 6.3240
 IR Inten    --     45.9828                41.3988                60.9105

                     82                     83                     84
                      A                      A                      A
 Frequencies --   3122.6314              3126.3087              3128.1908
 Red. masses --      1.0989                 1.1035                 1.1037
 Frc consts  --      6.3133                 6.3545                 6.3633
 IR Inten    --     27.5710                58.1240                54.7626

                     85                     86                     87
                      A                      A                      A
 Frequencies --   3138.5174              3140.9434              3141.2464
 Red. masses --      1.0968                 1.0970                 1.0958
 Frc consts  --      6.3653                 6.3766                 6.3708
 IR Inten    --     39.9180                45.6260                34.7034

 - Thermochemistry -
 -------------------
 Temperature   298.150 Kelvin.  Pressure   1.00000 Atm.
 Atom     1 has atomic number  6 and mass  12.00000

 Molecular mass:   186.12559 amu.
 Principal axes and moments of inertia in atomic units:
                           1         2         3
     Eigenvalues --   840.626184731.328525266.31279
           X            0.99995  -0.00929   0.00358
           Y            0.00927   0.99994   0.00628
           Z           -0.00363  -0.00624   0.99997
 This molecule is an asymmetric top.
 Rotational symmetry number  1.
 Warning -- assumption of classical behavior for rotation
           may cause significant error
 Rotational temperatures (Kelvin)      0.10304     0.01831     0.01645
 Rotational constants (GHZ):           2.14690     0.38144     0.34270
 Zero-point vibrational energy     736815.6 (Joules/Mol)
                                  176.10316 (Kcal/Mol)
 Warning -- explicit consideration of  18 degrees of freedom as
           vibrations may cause significant error
 Vibrational temperatures:     69.53    91.11   109.65   221.46   303.31
          (Kelvin)            361.29   369.79   382.29   436.82   513.76
                              562.46   628.94   647.41   667.27   714.72
                              751.63   781.72   868.50   927.33  1189.35
                             1202.83  1240.53  1266.65  1269.51  1293.81
                             1345.46  1359.67  1380.27  1420.07  1441.34
                             1453.68  1521.33  1526.15  1567.55  1591.14
                             1611.07  1656.29  1683.70  1696.02  1703.62
                             1733.21  1738.69  1771.71  1783.95  1795.09
                             1840.43  1871.46  1893.68  1916.93  1932.76
                             1944.31  1949.62  1968.26  1986.88  1992.10
                             2003.25  2026.12  2032.35  2043.45  2061.03
                             2087.67  2113.47  2116.72  2121.18  2137.24
                             2143.64  2156.98  2164.04  2167.99  4341.05
                             4363.27  4366.51  4369.92  4376.51  4402.21
                             4410.87  4416.60  4419.41  4422.21  4487.44
                             4491.93  4492.77  4498.06  4500.77  4515.63
                             4519.12  4519.55

 Zero-point correction=                           0.280638 (Hartree/Particle)
 Thermal correction to Energy=                    0.292386
 Thermal correction to Enthalpy=                  0.293331
 Thermal correction to Gibbs Free Energy=         0.242398
 Sum of electronic and zero-point Energies=           -617.226509
 Sum of electronic and thermal Energies=              -617.214761
 Sum of electronic and thermal Enthalpies=            -617.213817
 Sum of electronic and thermal Free Energies=         -617.264749

                     E (Thermal)             CV                S
                      KCal/Mol        Cal/Mol-Kelvin    Cal/Mol-Kelvin
 Total                  183.475             46.805            107.196
 Electronic               0.000              0.000              0.000
 Translational            0.889              2.981             41.570
 Rotational               0.889              2.981             31.416
 Vibrational            181.698             40.843             34.210
 Vibration     1          0.595              1.978              4.885
 Vibration     2          0.597              1.972              4.351
 Vibration     3          0.599              1.965              3.986
 Vibration     4          0.619              1.898              2.623
 Vibration     5          0.643              1.824              2.037
 Vibration     6          0.663              1.761              1.723
 Vibration     7          0.667              1.751              1.682
 Vibration     8          0.672              1.736              1.624
 Vibration     9          0.695              1.667              1.397
 Vibration    10          0.732              1.561              1.135
 Vibration    11          0.759              1.490              0.997
 Vibration    12          0.797              1.389              0.836
 Vibration    13          0.809              1.361              0.796
 Vibration    14          0.821              1.330              0.755
 Vibration    15          0.852              1.257              0.666
 Vibration    16          0.877              1.200              0.604
 Vibration    17          0.898              1.154              0.558
 Vibration    18          0.962              1.024              0.443

 Optimization completed.
    -- Stationary point found.
 Normal termination of Gaussian 16 at Sun Mar 10 06:27:59 2019.
