 Gaussian 16, Revision B.01,
 Gaussian 16:  ES64L-G16RevB.01 20-Dec-2017

 ----------------------------------------------------------------------
 #M062X/6-311++G(2d,2p) opt=ModRedundant freq=noraman SCRF=(SMD,solvent
 =water)
 ----------------------------------------------------------------------

 --------------------------------
 4c1_b1_4e_4c1_PSI.inp_extract_16
 --------------------------------
 Symbolic Z-matrix:
 Charge =  0 Multiplicity = 1

 SCF Done:  E(RM062X) =  -617.502594528     A.U. after   13 cycles
 SCF Done:  E(RM062X) =  -617.504247337     A.U. after   10 cycles
 SCF Done:  E(RM062X) =  -617.504564620     A.U. after   11 cycles
 SCF Done:  E(RM062X) =  -617.504713174     A.U. after    9 cycles
 SCF Done:  E(RM062X) =  -617.504720773     A.U. after    8 cycles
 SCF Done:  E(RM062X) =  -617.504721718     A.U. after    7 cycles
 Optimization completed.
    -- Stationary point found.
 Normal termination of Gaussian 16 at Sun Mar 10 04:08:23 2019.

 ----------------------------------------------------------------------
 #N Geom=AllCheck Guess=TCheck SCRF=Check GenChk RM062X/6-311++G(2d,2p)
  Freq
 ----------------------------------------------------------------------

 Structure from the checkpoint file:  "4c1_b1_4e_4c1_PSI.inp_extract_16.chk"
 --------------------------------
 4c1_b1_4e_4c1_PSI.inp_extract_16
 --------------------------------
 Charge =  0 Multiplicity = 1

                         Standard orientation:
 ---------------------------------------------------------------------
 Center     Atomic      Atomic             Coordinates (Angstroms)
 Number     Number       Type             X           Y           Z
 ---------------------------------------------------------------------
      1          6           0        3.604016   -0.363086    0.473947
      2          6           0       -1.866004   -0.361881   -1.218757
      3          6           0       -2.947997    0.398913    1.303425
      4          8           0       -3.252364   -0.102941   -1.053865
      5          8           0        1.143426    0.658096   -0.580182
      6          6           0        2.163054    1.569592   -0.164115
      7          8           0        0.086830   -1.326218   -0.202606
      8          6           0        3.538887    0.944327   -0.312618
      9          6           0       -1.455767    0.074480    1.203089
     10          6           0        1.133809   -0.510636    0.230482
     11          6           0       -3.479072    0.872628   -0.037234
     12          6           0       -1.263898   -0.919137    0.067470
     13          6           0        2.435574   -1.270344    0.087156
     14          1           0        4.550272   -0.873700    0.300307
     15          1           0        3.546670   -0.142094    1.543073
     16          1           0       -1.345343    0.558975   -1.502394
     17          1           0       -1.768600   -1.087806   -2.023955
     18          1           0       -3.503594   -0.488875    1.612500
     19          1           0       -3.116595    1.173610    2.051389
     20          1           0        1.983596    1.853497    0.879366
     21          1           0        2.050889    2.454551   -0.786323
     22          1           0        3.726091    0.751816   -1.371439
     23          1           0        4.293577    1.649337    0.037076
     24          1           0       -0.902261    0.992592    0.992524
     25          1           0       -1.089164   -0.336330    2.143789
     26          1           0        0.990555   -0.203300    1.271802
     27          1           0       -4.554195    1.035445   -0.004477
     28          1           0       -2.990628    1.809432   -0.328543
     29          1           0       -1.796738   -1.839345    0.316021
     30          1           0        2.527278   -1.590734   -0.953218
     31          1           0        2.399451   -2.157694    0.718658
 ---------------------------------------------------------------------

 SCF Done:  E(RM062X) =  -617.504721718     A.U. after    1 cycles

 The electronic state is 1-A.
 Alpha  occ. eigenvalues --  -19.63702 -19.63067 -19.62903 -10.63202 -10.58498
 Alpha  occ. eigenvalues --  -10.57485 -10.57406 -10.57309 -10.52783 -10.52648
 Alpha  occ. eigenvalues --  -10.52532 -10.52416 -10.52235  -1.19877  -1.16290
 Alpha  occ. eigenvalues --   -1.13517  -0.90541  -0.89414  -0.86899  -0.83704
 Alpha  occ. eigenvalues --   -0.74935  -0.73301  -0.72553  -0.69563  -0.65609
 Alpha  occ. eigenvalues --   -0.64666  -0.59429  -0.57255  -0.56440  -0.55671
 Alpha  occ. eigenvalues --   -0.54343  -0.52542  -0.52149  -0.50811  -0.49826
 Alpha  occ. eigenvalues --   -0.48000  -0.46134  -0.45659  -0.45151  -0.44360
 Alpha  occ. eigenvalues --   -0.43851  -0.40953  -0.39944  -0.39805  -0.39094
 Alpha  occ. eigenvalues --   -0.38227  -0.37459  -0.36761  -0.35988  -0.32577
 Alpha  occ. eigenvalues --   -0.31780
 Alpha virt. eigenvalues --    0.00430   0.01262   0.01349   0.01465   0.02655
 Alpha virt. eigenvalues --    0.02907   0.03096   0.03845   0.04044   0.04798
 Alpha virt. eigenvalues --    0.05203   0.05555   0.06076   0.06237   0.07320

 Mulliken charges:
               1
     1  C   -0.393974
     2  C   -0.295987
     3  C   -0.451548
     4  O   -0.402726
     5  O   -0.396526
     6  C   -0.112347
     7  O   -0.421625
     8  C   -0.385920
     9  C   -0.233635
    10  C    0.022773
    11  C   -0.191927
    12  C    0.062941
    13  C   -0.372157
    14  H    0.203798
    15  H    0.172978
    16  H    0.219655
    17  H    0.195143
    18  H    0.183799
    19  H    0.172713
    20  H    0.150227
    21  H    0.199764
    22  H    0.162587
    23  H    0.180879
    24  H    0.248278
    25  H    0.174571
    26  H    0.280804
    27  H    0.226001
    28  H    0.149022
    29  H    0.273043
    30  H    0.195751
    31  H    0.183643
 Sum of Mulliken charges =  -0.00000

 Dipole moment (field-independent basis, Debye):
    X=              2.6485    Y=              2.3989    Z=              4.1613  Tot=              5.4850
 Quadrupole moment (field-independent basis, Debye-Ang):
   XX=            -76.1424   YY=            -78.8642   ZZ=            -80.7267
   XY=             -1.4710   XZ=             -5.4921   YZ=             -0.3855

  Exact polarizability: 185.172   0.837 173.370  -1.965   1.389 168.879
 Approx polarizability: 147.468   1.668 144.027  -0.900   1.447 141.321

                      1                      2                      3
                      A                      A                      A
 Frequencies --     44.9175                63.6768                85.8198
 Red. masses --      4.4326                 3.2485                 3.6502
 Frc consts  --      0.0053                 0.0078                 0.0158
 IR Inten    --      0.7454                 1.7368                 1.1807

                      4                      5                      6
                      A                      A                      A
 Frequencies --    160.2122               197.9104               247.7768
 Red. masses --      2.9318                 3.0582                 2.5300
 Frc consts  --      0.0443                 0.0706                 0.0915
 IR Inten    --      4.1583                 0.7687                 6.9593

                      7                      8                      9
                      A                      A                      A
 Frequencies --    262.0214               288.9910               332.5592
 Red. masses --      2.1301                 3.3396                 2.4893
 Frc consts  --      0.0862                 0.1643                 0.1622
 IR Inten    --      7.7564                 2.3482                15.3026

                     10                     11                     12
                      A                      A                      A
 Frequencies --    363.6529               378.9416               434.5890
 Red. masses --      2.4353                 2.7815                 3.2315
 Frc consts  --      0.1897                 0.2353                 0.3596
 IR Inten    --     13.1956                 5.8254                 3.5264

                     13                     14                     15
                      A                      A                      A
 Frequencies --    448.1499               459.8436               478.2736
 Red. masses --      2.6180                 3.6944                 3.6413
 Frc consts  --      0.3098                 0.4603                 0.4907
 IR Inten    --      3.2349                 4.4453                 1.0729

                     16                     17                     18
                      A                      A                      A
 Frequencies --    534.9160               546.2741               600.2459
 Red. masses --      2.2051                 2.2679                 2.1241
 Frc consts  --      0.3718                 0.3987                 0.4509
 IR Inten    --      6.4238                 8.2128                 5.2950

                     19                     20                     21
                      A                      A                      A
 Frequencies --    652.7487               826.5448               832.5244
 Red. masses --      3.7651                 2.0907                 1.8348
 Frc consts  --      0.9452                 0.8415                 0.7493
 IR Inten    --      8.3551                 7.9944                10.0607

                     22                     23                     24
                      A                      A                      A
 Frequencies --    863.4921               880.1849               884.2615
 Red. masses --      1.9516                 2.0048                 1.3855
 Frc consts  --      0.8574                 0.9151                 0.6383
 IR Inten    --     14.7045                11.3921                14.9160

                     25                     26                     27
                      A                      A                      A
 Frequencies --    897.9251               929.9728               949.9803
 Red. masses --      2.2647                 2.4311                 2.2951
 Frc consts  --      1.0758                 1.2388                 1.2204
 IR Inten    --     12.0110                61.8558                46.3484

                     28                     29                     30
                      A                      A                      A
 Frequencies --    957.7994               985.0854               995.3882
 Red. masses --      2.2529                 1.7053                 1.9436
 Frc consts  --      1.2177                 0.9750                 1.1346
 IR Inten    --      6.1696                35.5488                17.2230

                     31                     32                     33
                      A                      A                      A
 Frequencies --   1006.0351              1055.5105              1057.3289
 Red. masses --      1.7323                 1.6016                 1.6480
 Frc consts  --      1.0330                 1.0513                 1.0855
 IR Inten    --      7.2194                99.0933                12.3678

                     34                     35                     36
                      A                      A                      A
 Frequencies --   1072.1031              1096.2426              1115.5028
 Red. masses --      3.3704                 2.3730                 3.9942
 Frc consts  --      2.2825                 1.6802                 2.9283
 IR Inten    --     65.9424                49.0512               261.9919

                     37                     38                     39
                      A                      A                      A
 Frequencies --   1149.8688              1153.5293              1169.8682
 Red. masses --      2.5448                 3.0662                 2.3460
 Frc consts  --      1.9825                 2.4038                 1.8917
 IR Inten    --     24.6892               120.1065                26.6073

                     40                     41                     42
                      A                      A                      A
 Frequencies --   1189.1595              1200.2499              1208.8574
 Red. masses --      2.0373                 1.5845                 1.8488
 Frc consts  --      1.6974                 1.3449                 1.5918
 IR Inten    --     21.7854                17.8532               169.7037

                     43                     44                     45
                      A                      A                      A
 Frequencies --   1222.3591              1239.6240              1252.6766
 Red. masses --      1.9959                 1.6537                 1.6551
 Frc consts  --      1.7571                 1.4973                 1.5302
 IR Inten    --    182.5987                39.2007                43.0852

                     46                     47                     48
                      A                      A                      A
 Frequencies --   1279.7376              1303.5841              1313.7424
 Red. masses --      1.2293                 1.1940                 1.1950
 Frc consts  --      1.1862                 1.1954                 1.2151
 IR Inten    --      4.8999                18.6842                29.4557

                     49                     50                     51
                      A                      A                      A
 Frequencies --   1327.1800              1347.5322              1355.0940
 Red. masses --      1.2647                 1.2989                 1.3164
 Frc consts  --      1.3125                 1.3896                 1.4242
 IR Inten    --     10.2557                20.2439                 0.2515

                     52                     53                     54
                      A                      A                      A
 Frequencies --   1367.1977              1369.3119              1381.7859
 Red. masses --      1.4092                 1.2721                 1.3958
 Frc consts  --      1.5520                 1.4054                 1.5702
 IR Inten    --      0.6648                10.2815                10.0067

                     55                     56                     57
                      A                      A                      A
 Frequencies --   1385.0122              1394.9945              1404.3749
 Red. masses --      1.5079                 1.2593                 1.4317
 Frc consts  --      1.7043                 1.4439                 1.6636
 IR Inten    --      3.1244                11.6803                14.1548

                     58                     59                     60
                      A                      A                      A
 Frequencies --   1416.3484              1419.9111              1430.3057
 Red. masses --      1.3557                 1.4226                 1.3929
 Frc consts  --      1.6023                 1.6898                 1.6789
 IR Inten    --      0.2152                13.4064                14.0783

                     61                     62                     63
                      A                      A                      A
 Frequencies --   1443.4808              1471.8167              1472.6356
 Red. masses --      1.5005                 1.1092                 1.0971
 Frc consts  --      1.8421                 1.4157                 1.4018
 IR Inten    --     61.0834                 6.7780                 7.1868

                     64                     65                     66
                      A                      A                      A
 Frequencies --   1473.7353              1489.2531              1492.5599
 Red. masses --      1.1066                 1.1175                 1.1271
 Frc consts  --      1.4161                 1.4603                 1.4793
 IR Inten    --      9.7660                15.5852                22.7004

                     67                     68                     69
                      A                      A                      A
 Frequencies --   1498.8323              1503.9838              1507.0072
 Red. masses --      1.0840                 1.0952                 1.1021
 Frc consts  --      1.4347                 1.4596                 1.4747
 IR Inten    --      1.2931                 5.3704                 7.1668

                     70                     71                     72
                      A                      A                      A
 Frequencies --   3032.3502              3036.0830              3046.1156
 Red. masses --      1.0706                 1.0697                 1.0671
 Frc consts  --      5.7999                 5.8095                 5.8339
 IR Inten    --     62.9705                68.8580                48.2537

                     73                     74                     75
                      A                      A                      A
 Frequencies --   3053.5916              3061.5494              3069.1811
 Red. masses --      1.0811                 1.0688                 1.0631
 Frc consts  --      5.9394                 5.9021                 5.9001
 IR Inten    --     41.8470                23.1039                44.5268

                     76                     77                     78
                      A                      A                      A
 Frequencies --   3069.8206              3072.9892              3074.0776
 Red. masses --      1.0639                 1.0628                 1.0630
 Frc consts  --      5.9069                 5.9130                 5.9186
 IR Inten    --      5.9789                67.8063                22.1229

                     79                     80                     81
                      A                      A                      A
 Frequencies --   3080.4804              3119.0519              3121.0263
 Red. masses --      1.0800                 1.0979                 1.1008
 Frc consts  --      6.0381                 6.2929                 6.3176
 IR Inten    --     84.2362                40.0815                30.8357

                     82                     83                     84
                      A                      A                      A
 Frequencies --   3122.6048              3126.3704              3129.7401
 Red. masses --      1.1006                 1.1043                 1.1035
 Frc consts  --      6.3229                 6.3593                 6.3687
 IR Inten    --     57.5592                56.4331                56.2890

                     85                     86                     87
                      A                      A                      A
 Frequencies --   3138.5932              3140.4366              3141.3751
 Red. masses --      1.0977                 1.0981                 1.0955
 Frc consts  --      6.3710                 6.3809                 6.3697
 IR Inten    --     41.7080                44.7415                37.6485

 - Thermochemistry -
 -------------------
 Temperature   298.150 Kelvin.  Pressure   1.00000 Atm.
 Atom     1 has atomic number  6 and mass  12.00000

 Molecular mass:   186.12559 amu.
 Principal axes and moments of inertia in atomic units:
                           1         2         3
     Eigenvalues --   955.020214417.440614571.36657
           X            0.99997  -0.00337  -0.00638
           Y            0.00339   0.99999   0.00308
           Z            0.00637  -0.00310   0.99997
 This molecule is an asymmetric top.
 Rotational symmetry number  1.
 Warning -- assumption of classical behavior for rotation
           may cause significant error
 Rotational temperatures (Kelvin)      0.09069     0.01961     0.01895
 Rotational constants (GHZ):           1.88974     0.40855     0.39479
 Zero-point vibrational energy     737249.3 (Joules/Mol)
                                  176.20680 (Kcal/Mol)
 Warning -- explicit consideration of  18 degrees of freedom as
           vibrations may cause significant error
 Vibrational temperatures:     64.63    91.62   123.48   230.51   284.75
          (Kelvin)            356.50   376.99   415.79   478.48   523.22
                              545.21   625.28   644.79   661.61   688.13
                              769.62   785.97   863.62   939.16  1189.21
                             1197.82  1242.37  1266.39  1272.26  1291.91
                             1338.02  1366.81  1378.06  1417.32  1432.14
                             1447.46  1518.64  1521.26  1542.52  1577.25
                             1604.96  1654.40  1659.67  1683.18  1710.94
                             1726.89  1739.28  1758.70  1783.54  1802.32
                             1841.26  1875.57  1890.18  1909.52  1938.80
                             1949.68  1967.09  1970.13  1988.08  1992.72
                             2007.09  2020.58  2037.81  2042.94  2057.89
                             2076.85  2117.62  2118.79  2120.38  2142.70
                             2147.46  2156.49  2163.90  2168.25  4362.88
                             4368.25  4382.68  4393.44  4404.89  4415.87
                             4416.79  4421.35  4422.91  4432.12  4487.62
                             4490.46  4492.73  4498.15  4503.00  4515.74
                             4518.39  4519.74

 Zero-point correction=                           0.280803 (Hartree/Particle)
 Thermal correction to Energy=                    0.292502
 Thermal correction to Enthalpy=                  0.293447
 Thermal correction to Gibbs Free Energy=         0.242691
 Sum of electronic and zero-point Energies=           -617.223918
 Sum of electronic and thermal Energies=              -617.212219
 Sum of electronic and thermal Enthalpies=            -617.211275
 Sum of electronic and thermal Free Energies=         -617.262031

                     E (Thermal)             CV                S
                      KCal/Mol        Cal/Mol-Kelvin    Cal/Mol-Kelvin
 Total                  183.548             46.802            106.824
 Electronic               0.000              0.000              0.000
 Translational            0.889              2.981             41.570
 Rotational               0.889              2.981             31.334
 Vibrational            181.771             40.841             33.920
 Vibration     1          0.595              1.979              5.029
 Vibration     2          0.597              1.972              4.340
 Vibration     3          0.601              1.959              3.753
 Vibration     4          0.622              1.891              2.547
 Vibration     5          0.637              1.843              2.152
 Vibration     6          0.661              1.766              1.746
 Vibration     7          0.669              1.742              1.648
 Vibration     8          0.686              1.694              1.480
 Vibration     9          0.715              1.610              1.248
 Vibration    10          0.737              1.547              1.106
 Vibration    11          0.749              1.515              1.043
 Vibration    12          0.795              1.395              0.844
 Vibration    13          0.807              1.365              0.801
 Vibration    14          0.818              1.339              0.767
 Vibration    15          0.835              1.298              0.715
 Vibration    16          0.890              1.173              0.576
 Vibration    17          0.901              1.148              0.552
 Vibration    18          0.958              1.031              0.449

 Optimization completed.
    -- Stationary point found.
 Normal termination of Gaussian 16 at Sun Mar 10 05:11:36 2019.
