 Gaussian 16, Revision B.01,
 Gaussian 16:  ES64L-G16RevB.01 20-Dec-2017

 ----------------------------------------------------------------------
 #M062X/6-311++G(2d,2p) opt=ModRedundant freq=noraman SCRF=(SMD,solvent
 =water)
 ----------------------------------------------------------------------

 --------------------------------
 4c1_b1_4e_4c1_PSI.inp_extract_23
 --------------------------------
 Symbolic Z-matrix:
 Charge =  0 Multiplicity = 1

 SCF Done:  E(RM062X) =  -617.505289516     A.U. after   12 cycles
 SCF Done:  E(RM062X) =  -617.506829160     A.U. after   10 cycles
 SCF Done:  E(RM062X) =  -617.506944686     A.U. after    9 cycles
 SCF Done:  E(RM062X) =  -617.506969548     A.U. after    9 cycles
 SCF Done:  E(RM062X) =  -617.506978102     A.U. after    9 cycles
 SCF Done:  E(RM062X) =  -617.506982001     A.U. after    9 cycles
 SCF Done:  E(RM062X) =  -617.506982523     A.U. after    7 cycles
 Optimization completed.
    -- Stationary point found.
 Normal termination of Gaussian 16 at Sun Mar 10 05:39:05 2019.

 ----------------------------------------------------------------------
 #N Geom=AllCheck Guess=TCheck SCRF=Check GenChk RM062X/6-311++G(2d,2p)
  Freq
 ----------------------------------------------------------------------

 Structure from the checkpoint file:  "4c1_b1_4e_4c1_PSI.inp_extract_23.chk"
 --------------------------------
 4c1_b1_4e_4c1_PSI.inp_extract_23
 --------------------------------
 Charge =  0 Multiplicity = 1

                         Standard orientation:
 ---------------------------------------------------------------------
 Center     Atomic      Atomic             Coordinates (Angstroms)
 Number     Number       Type             X           Y           Z
 ---------------------------------------------------------------------
      1          6           0        3.649675   -0.862130    0.356953
      2          6           0       -2.257592   -1.313735   -0.155630
      3          6           0       -2.990112    1.415256    0.245446
      4          8           0       -3.514372   -0.948698    0.390581
      5          8           0        1.528141    0.925976   -0.363369
      6          6           0        2.733408    1.447495    0.201960
      7          8           0        0.013849   -0.778180   -0.412175
      8          6           0        3.918560    0.559417   -0.130295
      9          6           0       -1.589616    1.088398   -0.274810
     10          6           0        1.215421   -0.357710    0.162785
     11          6           0       -3.961266    0.308358   -0.117648
     12          6           0       -1.181760   -0.297723    0.204041
     13          6           0        2.304432   -1.353731   -0.176856
     14          1           0        4.446335   -1.537398    0.047711
     15          1           0        3.625532   -0.868208    1.449957
     16          1           0       -2.330923   -1.386885   -1.247276
     17          1           0       -2.003450   -2.291933    0.247816
     18          1           0       -2.968146    1.523343    1.332185
     19          1           0       -3.342226    2.358281   -0.172768
     20          1           0        2.612362    1.528311    1.288130
     21          1           0        2.849389    2.448542   -0.207124
     22          1           0        4.069952    0.561148   -1.212102
     23          1           0        4.816016    0.969948    0.333304
     24          1           0       -1.591177    1.084152   -1.368459
     25          1           0       -0.871099    1.834878    0.057600
     26          1           0        1.097984   -0.263576    1.250413
     27          1           0       -4.943969    0.479276    0.316607
     28          1           0       -4.066162    0.234185   -1.205889
     29          1           0       -1.047314   -0.295125    1.290081
     30          1           0        2.338611   -1.453391   -1.264412
     31          1           0        2.040441   -2.321705    0.248256
 ---------------------------------------------------------------------

 SCF Done:  E(RM062X) =  -617.506982523     A.U. after    1 cycles

 The electronic state is 1-A.
 Alpha  occ. eigenvalues --  -19.63835 -19.63142 -19.62845 -10.63329 -10.58432
 Alpha  occ. eigenvalues --  -10.57577 -10.57468 -10.57384 -10.52528 -10.52494
 Alpha  occ. eigenvalues --  -10.52411 -10.52340 -10.52219  -1.20017  -1.16392
 Alpha  occ. eigenvalues --   -1.13735  -0.90524  -0.89371  -0.87005  -0.83532
 Alpha  occ. eigenvalues --   -0.74235  -0.73737  -0.72149  -0.69803  -0.66110
 Alpha  occ. eigenvalues --   -0.64318  -0.59616  -0.58096  -0.56395  -0.55347
 Alpha  occ. eigenvalues --   -0.54597  -0.52496  -0.51237  -0.50922  -0.49903
 Alpha  occ. eigenvalues --   -0.47772  -0.46935  -0.45903  -0.45187  -0.44292
 Alpha  occ. eigenvalues --   -0.42023  -0.40990  -0.40361  -0.39874  -0.39308
 Alpha  occ. eigenvalues --   -0.38973  -0.37604  -0.36997  -0.35299  -0.32526
 Alpha  occ. eigenvalues --   -0.31997
 Alpha virt. eigenvalues --    0.00522   0.01264   0.01332   0.01517   0.02601
 Alpha virt. eigenvalues --    0.02902   0.03018   0.04049   0.04198   0.04680
 Alpha virt. eigenvalues --    0.04886   0.05355   0.05848   0.06166   0.07125

 Mulliken charges:
               1
     1  C   -0.415528
     2  C   -0.321717
     3  C   -0.396375
     4  O   -0.382546
     5  O   -0.411644
     6  C   -0.143660
     7  O   -0.387687
     8  C   -0.359063
     9  C   -0.297396
    10  C    0.086449
    11  C   -0.211154
    12  C    0.007605
    13  C   -0.263115
    14  H    0.200499
    15  H    0.172577
    16  H    0.203336
    17  H    0.212011
    18  H    0.173092
    19  H    0.179068
    20  H    0.161230
    21  H    0.202950
    22  H    0.162043
    23  H    0.183991
    24  H    0.232195
    25  H    0.177026
    26  H    0.247529
    27  H    0.215456
    28  H    0.154838
    29  H    0.245795
    30  H    0.199982
    31  H    0.172212
 Sum of Mulliken charges =  -0.00000

 Dipole moment (field-independent basis, Debye):
    X=              2.5448    Y=              1.6482    Z=              1.7043  Tot=              3.4781
 Quadrupole moment (field-independent basis, Debye-Ang):
   XX=            -72.9377   YY=            -79.5605   ZZ=            -80.3823
   XY=             -7.0902   XZ=              6.8272   YZ=              1.2792

  Exact polarizability: 186.110  -0.215 174.293   0.130   0.801 167.040
 Approx polarizability: 146.989   0.101 142.900  -0.011   0.077 142.350

 ******    1 imaginary frequencies (negative Signs) ******

                      1                      2                      3
                      A                      A                      A
 Frequencies --    -37.9675                58.7173                75.6921
 Red. masses --      3.2772                 4.2180                 3.7776
 Frc consts  --      0.0028                 0.0086                 0.0128
 IR Inten    --      2.9347                 3.5102                 0.8035

                      4                      5                      6
                      A                      A                      A
 Frequencies --    138.3964               234.9343               240.9889
 Red. masses --      2.8516                 3.2266                 2.0805
 Frc consts  --      0.0322                 0.1049                 0.0712
 IR Inten    --      1.1196                 5.9216                 6.5286

                      7                      8                      9
                      A                      A                      A
 Frequencies --    250.7407               260.5398               278.9530
 Red. masses --      2.2115                 3.8833                 3.5369
 Frc consts  --      0.0819                 0.1553                 0.1622
 IR Inten    --      6.1988                 6.2485                 0.4386

                     10                     11                     12
                      A                      A                      A
 Frequencies --    355.6104               391.5611               434.7695
 Red. masses --      1.9537                 2.2982                 3.3876
 Frc consts  --      0.1456                 0.2076                 0.3773
 IR Inten    --      6.6449                13.0236                 7.1586

                     13                     14                     15
                      A                      A                      A
 Frequencies --    442.5880               464.4166               508.1659
 Red. masses --      3.6350                 2.8691                 2.7000
 Frc consts  --      0.4195                 0.3646                 0.4108
 IR Inten    --      3.7410                 0.3886                 4.4433

                     16                     17                     18
                      A                      A                      A
 Frequencies --    520.6083               544.1334               604.4526
 Red. masses --      2.7813                 2.3887                 2.3163
 Frc consts  --      0.4441                 0.4167                 0.4986
 IR Inten    --      0.5659                 9.3452                15.3832

                     19                     20                     21
                      A                      A                      A
 Frequencies --    646.2866               827.3000               832.4935
 Red. masses --      2.9227                 2.2310                 1.7510
 Frc consts  --      0.7193                 0.8997                 0.7150
 IR Inten    --      3.2254                 2.1478                 9.2723

                     22                     23                     24
                      A                      A                      A
 Frequencies --    863.8048               876.4162               883.0804
 Red. masses --      1.9473                 1.3949                 1.8729
 Frc consts  --      0.8561                 0.6313                 0.8605
 IR Inten    --     15.1729                14.1570                12.7313

                     25                     26                     27
                      A                      A                      A
 Frequencies --    898.7028               932.3152               942.9154
 Red. masses --      2.4032                 2.4452                 2.2143
 Frc consts  --      1.1436                 1.2522                 1.1599
 IR Inten    --     12.1511                43.9726                77.7435

                     28                     29                     30
                      A                      A                      A
 Frequencies --    960.4656               982.8330               997.4059
 Red. masses --      2.0794                 2.0531                 1.4026
 Frc consts  --      1.1302                 1.1685                 0.8221
 IR Inten    --     10.2402                46.9313                 2.3048

                     31                     32                     33
                      A                      A                      A
 Frequencies --   1010.8070              1054.8067              1058.2767
 Red. masses --      2.0908                 1.6055                 1.6777
 Frc consts  --      1.2587                 1.0525                 1.1071
 IR Inten    --      9.5240               124.5527                 4.6389

                     34                     35                     36
                      A                      A                      A
 Frequencies --   1089.2677              1098.1768              1116.3640
 Red. masses --      2.5551                 3.1716                 4.3364
 Frc consts  --      1.7862                 2.2536                 3.1841
 IR Inten    --     73.2766                41.4631               279.8631

                     37                     38                     39
                      A                      A                      A
 Frequencies --   1150.3399              1167.1560              1174.6948
 Red. masses --      2.2587                 2.2719                 2.3673
 Frc consts  --      1.7610                 1.8235                 1.9247
 IR Inten    --      6.9587                90.6693                47.7245

                     40                     41                     42
                      A                      A                      A
 Frequencies --   1183.4335              1205.8475              1214.5849
 Red. masses --      2.2906                 1.5803                 1.5743
 Frc consts  --      1.8901                 1.3539                 1.3683
 IR Inten    --      6.0417                59.0281                40.0248

                     43                     44                     45
                      A                      A                      A
 Frequencies --   1225.7364              1238.9499              1246.5612
 Red. masses --      3.3997                 1.6988                 1.6243
 Frc consts  --      3.0095                 1.5364                 1.4871
 IR Inten    --    304.7495                52.3843                45.6428

                     46                     47                     48
                      A                      A                      A
 Frequencies --   1279.9554              1302.8922              1315.1987
 Red. masses --      1.2340                 1.1931                 1.1880
 Frc consts  --      1.1911                 1.1933                 1.2107
 IR Inten    --      5.7595                20.5221                29.0974

                     49                     50                     51
                      A                      A                      A
 Frequencies --   1332.5737              1340.0108              1345.4186
 Red. masses --      1.3127                 1.2521                 1.2719
 Frc consts  --      1.3734                 1.3247                 1.3565
 IR Inten    --     12.3245                 2.3648                 9.1460

                     52                     53                     54
                      A                      A                      A
 Frequencies --   1359.0081              1368.7927              1382.8078
 Red. masses --      1.2445                 1.4532                 1.4312
 Frc consts  --      1.3542                 1.6041                 1.6124
 IR Inten    --     29.0882                 4.9727                12.1249

                     55                     56                     57
                      A                      A                      A
 Frequencies --   1385.6977              1391.3368              1400.3296
 Red. masses --      1.4718                 1.3789                 1.4162
 Frc consts  --      1.6651                 1.5728                 1.6362
 IR Inten    --      3.9074                 8.2755                20.7728

                     58                     59                     60
                      A                      A                      A
 Frequencies --   1410.7454              1419.9334              1430.1188
 Red. masses --      1.4362                 1.3504                 1.4765
 Frc consts  --      1.6841                 1.6041                 1.7792
 IR Inten    --     33.3928                16.7592                17.1931

                     61                     62                     63
                      A                      A                      A
 Frequencies --   1453.0803              1469.9046              1471.5605
 Red. masses --      1.3944                 1.0948                 1.1373
 Frc consts  --      1.7347                 1.3936                 1.4510
 IR Inten    --     22.7577                 7.5649                 4.4307

                     64                     65                     66
                      A                      A                      A
 Frequencies --   1472.8893              1487.9429              1490.2449
 Red. masses --      1.1066                 1.1280                 1.1287
 Frc consts  --      1.4144                 1.4714                 1.4768
 IR Inten    --     16.2611                17.0724                22.6042

                     67                     68                     69
                      A                      A                      A
 Frequencies --   1496.6712              1503.4475              1505.8685
 Red. masses --      1.0867                 1.0965                 1.1039
 Frc consts  --      1.4342                 1.4603                 1.4749
 IR Inten    --      1.6389                 5.2426                 9.1401

                     70                     71                     72
                      A                      A                      A
 Frequencies --   3019.9981              3030.3569              3035.6855
 Red. masses --      1.0833                 1.0693                 1.0703
 Frc consts  --      5.8210                 5.7855                 5.8114
 IR Inten    --     69.4861                40.2972                87.0705

                     73                     74                     75
                      A                      A                      A
 Frequencies --   3035.9587              3054.8153              3061.0816
 Red. masses --      1.0698                 1.0798                 1.0685
 Frc consts  --      5.8096                 5.9370                 5.8990
 IR Inten    --     60.4690                26.7786                23.6527

                     76                     77                     78
                      A                      A                      A
 Frequencies --   3065.0277              3069.3171              3072.2132
 Red. masses --      1.0707                 1.0616                 1.0623
 Frc consts  --      5.9264                 5.8926                 5.9074
 IR Inten    --     53.6199                40.5610                71.0243

                     79                     80                     81
                      A                      A                      A
 Frequencies --   3072.3758              3118.4730              3121.9078
 Red. masses --      1.0617                 1.0976                 1.1012
 Frc consts  --      5.9049                 6.2891                 6.3233
 IR Inten    --     43.0184                41.3336                61.2912

                     82                     83                     84
                      A                      A                      A
 Frequencies --   3122.4358              3129.8967              3136.8106
 Red. masses --      1.1005                 1.1032                 1.0978
 Frc consts  --      6.3214                 6.3674                 6.3645
 IR Inten    --     46.2929                50.9574                36.6890

                     85                     86                     87
                      A                      A                      A
 Frequencies --   3138.1671              3140.3981              3141.7868
 Red. masses --      1.0960                 1.0976                 1.0957
 Frc consts  --      6.3596                 6.3779                 6.3721
 IR Inten    --     46.0526                35.3274                40.8646

 - Thermochemistry -
 -------------------
 Temperature   298.150 Kelvin.  Pressure   1.00000 Atm.
 Atom     1 has atomic number  6 and mass  12.00000

 Molecular mass:   186.12559 amu.
 Principal axes and moments of inertia in atomic units:
                           1         2         3
     Eigenvalues --   823.879284851.485375461.29165
           X            0.99994  -0.01001   0.00528
           Y            0.00996   0.99991   0.00902
           Z           -0.00537  -0.00897   0.99995
 This molecule is an asymmetric top.
 Rotational symmetry number  1.
 Warning -- assumption of classical behavior for rotation
           may cause significant error
 Rotational temperatures (Kelvin)      0.10513     0.01785     0.01586
 Rotational constants (GHZ):           2.19054     0.37200     0.33046
    1 imaginary frequencies ignored.
 Zero-point vibrational energy     736106.7 (Joules/Mol)
                                  175.93372 (Kcal/Mol)
 Warning -- explicit consideration of  17 degrees of freedom as
           vibrations may cause significant error
 Vibrational temperatures:     84.48   108.90   199.12   338.02   346.73
          (Kelvin)            360.76   374.86   401.35   511.64   563.37
                              625.54   636.79   668.19   731.14   749.04
                              782.89   869.67   929.86  1190.30  1197.77
                             1242.82  1260.97  1270.56  1293.03  1341.39
                             1356.65  1381.90  1414.08  1435.04  1454.33
                             1517.63  1522.62  1567.21  1580.03  1606.20
                             1655.08  1679.28  1690.12  1702.70  1734.95
                             1747.52  1763.56  1782.57  1793.52  1841.57
                             1874.57  1892.28  1917.28  1927.98  1935.76
                             1955.31  1969.39  1989.55  1993.71  2001.82
                             2014.76  2029.75  2042.97  2057.62  2090.66
                             2114.86  2117.25  2119.16  2140.82  2144.13
                             2153.38  2163.13  2166.61  4345.10  4360.01
                             4367.67  4368.07  4395.20  4404.21  4409.89
                             4416.06  4420.23  4420.46  4486.79  4491.73
                             4492.49  4503.22  4513.17  4515.12  4518.33
                             4520.33

 Zero-point correction=                           0.280368 (Hartree/Particle)
 Thermal correction to Energy=                    0.291347
 Thermal correction to Enthalpy=                  0.292291
 Thermal correction to Gibbs Free Energy=         0.243432
 Sum of electronic and zero-point Energies=           -617.226614
 Sum of electronic and thermal Energies=              -617.215636
 Sum of electronic and thermal Enthalpies=            -617.214691
 Sum of electronic and thermal Free Energies=         -617.263551

                     E (Thermal)             CV                S
                      KCal/Mol        Cal/Mol-Kelvin    Cal/Mol-Kelvin
 Total                  182.823             44.930            102.833
 Electronic               0.000              0.000              0.000
 Translational            0.889              2.981             41.570
 Rotational               0.889              2.981             31.457
 Vibrational            181.045             38.968             29.806
 Vibration     1          0.596              1.974              4.500
 Vibration     2          0.599              1.965              4.000
 Vibration     3          0.614              1.915              2.826
 Vibration     4          0.655              1.787              1.841
 Vibration     5          0.658              1.778              1.796
 Vibration     6          0.663              1.762              1.725
 Vibration     7          0.669              1.745              1.658
 Vibration     8          0.679              1.712              1.540
 Vibration     9          0.731              1.564              1.141
 Vibration    10          0.759              1.488              0.994
 Vibration    11          0.795              1.394              0.843
 Vibration    12          0.802              1.377              0.819
 Vibration    13          0.822              1.329              0.753
 Vibration    14          0.863              1.232              0.638
 Vibration    15          0.876              1.204              0.609
 Vibration    16          0.899              1.153              0.556
 Vibration    17          0.963              1.022              0.442

 Optimization completed.
    -- Stationary point found.
 Normal termination of Gaussian 16 at Sun Mar 10 06:40:47 2019.
