 Gaussian 16, Revision B.01,
 Gaussian 16:  ES64L-G16RevB.01 20-Dec-2017

 ----------------------------------------------------------------------
 #M062X/6-311++G(2d,2p) opt=ModRedundant freq=noraman SCRF=(SMD,solvent
 =water)
 ----------------------------------------------------------------------

 -------------------------------
 4c1_b1_4e_4c1_PSI.inp_extract_0
 -------------------------------
 Symbolic Z-matrix:
 Charge =  0 Multiplicity = 1

 SCF Done:  E(RM062X) =  -617.505788519     A.U. after   12 cycles
 SCF Done:  E(RM062X) =  -617.507350126     A.U. after   10 cycles
 SCF Done:  E(RM062X) =  -617.507478205     A.U. after    9 cycles
 SCF Done:  E(RM062X) =  -617.507500168     A.U. after    9 cycles
 SCF Done:  E(RM062X) =  -617.507504540     A.U. after    8 cycles
 SCF Done:  E(RM062X) =  -617.507505421     A.U. after    8 cycles
 SCF Done:  E(RM062X) =  -617.507505486     A.U. after    6 cycles
 Optimization completed.
    -- Stationary point found.
 Normal termination of Gaussian 16 at Sun Mar 10 02:47:55 2019.

 ----------------------------------------------------------------------
 #N Geom=AllCheck Guess=TCheck SCRF=Check GenChk RM062X/6-311++G(2d,2p)
  Freq
 ----------------------------------------------------------------------

 Structure from the checkpoint file:  "4c1_b1_4e_4c1_PSI.inp_extract_0.chk"
 -------------------------------
 4c1_b1_4e_4c1_PSI.inp_extract_0
 -------------------------------
 Charge =  0 Multiplicity = 1

                         Standard orientation:
 ---------------------------------------------------------------------
 Center     Atomic      Atomic             Coordinates (Angstroms)
 Number     Number       Type             X           Y           Z
 ---------------------------------------------------------------------
      1          6           0       -3.684139   -0.856271   -0.143385
      2          6           0        2.205498   -1.321002   -0.111780
      3          6           0        3.019231    1.412386    0.045163
      4          8           0        3.432732   -0.872186   -0.663597
      5          8           0       -1.469831    0.948513    0.109051
      6          6           0       -2.679851    1.393281   -0.510233
      7          8           0       -0.020629   -0.778732    0.459106
      8          6           0       -3.879454    0.646358    0.043879
      9          6           0        1.651446    1.008359    0.596124
     10          6           0       -1.231262   -0.428538   -0.142940
     11          6           0        3.967708    0.228621    0.071759
     12          6           0        1.150614   -0.223390   -0.143554
     13          6           0       -2.336332   -1.285202    0.436381
     14          1           0       -4.490932   -1.415520    0.328278
     15          1           0       -3.707379   -1.091165   -1.210807
     16          1           0        2.356449   -1.642357    0.925831
     17          1           0        1.880474   -2.175318   -0.702537
     18          1           0        2.918472    1.762083   -0.984754
     19          1           0        3.442357    2.228162    0.631436
     20          1           0       -2.603768    1.240109   -1.592533
     21          1           0       -2.741737    2.461609   -0.316245
     22          1           0       -3.982233    0.879993    1.105980
     23          1           0       -4.781471    0.990517   -0.462825
     24          1           0        1.743346    0.752758    1.655609
     25          1           0        0.936917    1.823887    0.507534
     26          1           0       -1.161129   -0.566465   -1.230903
     27          1           0        4.921323    0.468991   -0.393392
     28          1           0        4.150532   -0.089756    1.104305
     29          1           0        0.934112    0.028793   -1.186201
     30          1           0       -2.329155   -1.153599    1.520911
     31          1           0       -2.125096   -2.331094    0.215345
 ---------------------------------------------------------------------

 SCF Done:  E(RM062X) =  -617.507505486     A.U. after    1 cycles

 The electronic state is 1-A.
 Alpha  occ. eigenvalues --  -19.63813 -19.63125 -19.62969 -10.63359 -10.58382
 Alpha  occ. eigenvalues --  -10.57541 -10.57506 -10.57387 -10.52552 -10.52482
 Alpha  occ. eigenvalues --  -10.52447 -10.52309 -10.52241  -1.20127  -1.16363
 Alpha  occ. eigenvalues --   -1.13727  -0.90596  -0.89375  -0.86929  -0.83557
 Alpha  occ. eigenvalues --   -0.74175  -0.73785  -0.72163  -0.69797  -0.66140
 Alpha  occ. eigenvalues --   -0.64227  -0.59743  -0.57923  -0.56772  -0.55279
 Alpha  occ. eigenvalues --   -0.54593  -0.52466  -0.51280  -0.50729  -0.49969
 Alpha  occ. eigenvalues --   -0.47922  -0.46659  -0.45906  -0.45224  -0.44148
 Alpha  occ. eigenvalues --   -0.42642  -0.40404  -0.40222  -0.40001  -0.39394
 Alpha  occ. eigenvalues --   -0.39014  -0.37726  -0.37021  -0.35274  -0.32681
 Alpha  occ. eigenvalues --   -0.31914
 Alpha virt. eigenvalues --    0.00524   0.01283   0.01311   0.01499   0.02600
 Alpha virt. eigenvalues --    0.02888   0.03048   0.04019   0.04217   0.04683
 Alpha virt. eigenvalues --    0.04858   0.05332   0.06007   0.06078   0.07220

 Mulliken charges:
               1
     1  C   -0.424233
     2  C   -0.300682
     3  C   -0.341635
     4  O   -0.380986
     5  O   -0.413207
     6  C   -0.184907
     7  O   -0.364907
     8  C   -0.321309
     9  C   -0.363271
    10  C   -0.060002
    11  C   -0.202574
    12  C    0.128374
    13  C   -0.249368
    14  H    0.201791
    15  H    0.174118
    16  H    0.204488
    17  H    0.208546
    18  H    0.169308
    19  H    0.181929
    20  H    0.166090
    21  H    0.199787
    22  H    0.160637
    23  H    0.181553
    24  H    0.213573
    25  H    0.188495
    26  H    0.255708
    27  H    0.214788
    28  H    0.154351
    29  H    0.226493
    30  H    0.196832
    31  H    0.180218
 Sum of Mulliken charges =  -0.00000

 Dipole moment (field-independent basis, Debye):
    X=             -2.5904    Y=              1.1866    Z=             -0.9740  Tot=              3.0111
 Quadrupole moment (field-independent basis, Debye-Ang):
   XX=            -71.4117   YY=            -79.4813   ZZ=            -80.7586
   XY=              6.2277   XZ=              8.3407   YZ=             -1.2390

  Exact polarizability: 186.199   0.885 174.268   1.202  -1.072 167.554
 Approx polarizability: 147.047   0.468 142.982   0.925  -0.328 142.451

                      1                      2                      3
                      A                      A                      A
 Frequencies --     19.1157                57.8150                72.3537
 Red. masses --      3.3203                 4.3279                 3.6362
 Frc consts  --      0.0007                 0.0085                 0.0112
 IR Inten    --      2.3014                 4.1019                 1.4841

                      4                      5                      6
                      A                      A                      A
 Frequencies --    141.2481               216.6252               240.5910
 Red. masses --      2.9536                 3.3004                 2.1607
 Frc consts  --      0.0347                 0.0913                 0.0737
 IR Inten    --      1.0833                 0.6012                 4.8626

                      7                      8                      9
                      A                      A                      A
 Frequencies --    247.0461               276.4776               294.3545
 Red. masses --      2.2245                 3.6556                 3.4613
 Frc consts  --      0.0800                 0.1646                 0.1767
 IR Inten    --     10.0967                 0.7114                14.5556

                     10                     11                     12
                      A                      A                      A
 Frequencies --    355.3042               388.9285               433.9148
 Red. masses --      1.9473                 2.3279                 3.0679
 Frc consts  --      0.1448                 0.2075                 0.3403
 IR Inten    --      5.2449                 9.1353                 9.0718

                     13                     14                     15
                      A                      A                      A
 Frequencies --    442.8021               465.1133               504.0825
 Red. masses --      3.7014                 3.0199                 2.8069
 Frc consts  --      0.4276                 0.3849                 0.4202
 IR Inten    --      3.2376                 0.9360                 3.0794

                     16                     17                     18
                      A                      A                      A
 Frequencies --    520.6454               546.9309               604.4530
 Red. masses --      2.7612                 2.2653                 2.2926
 Frc consts  --      0.4410                 0.3992                 0.4935
 IR Inten    --      1.7002                13.8133                13.4192

                     19                     20                     21
                      A                      A                      A
 Frequencies --    646.9671               830.1689               835.6554
 Red. masses --      2.9915                 2.2147                 1.7611
 Frc consts  --      0.7378                 0.8993                 0.7246
 IR Inten    --      0.9072                 2.3960                 7.4933

                     22                     23                     24
                      A                      A                      A
 Frequencies --    863.0604               874.2445               884.1040
 Red. masses --      1.9107                 1.4052                 1.8975
 Frc consts  --      0.8385                 0.6328                 0.8738
 IR Inten    --     14.5735                13.3124                11.1607

                     25                     26                     27
                      A                      A                      A
 Frequencies --    898.8252               934.8162               943.0848
 Red. masses --      2.3608                 2.3881                 2.2440
 Frc consts  --      1.1237                 1.2296                 1.1759
 IR Inten    --     15.3399                43.6884                71.5203

                     28                     29                     30
                      A                      A                      A
 Frequencies --    960.5638               983.6902               994.8684
 Red. masses --      2.0678                 2.0633                 1.3800
 Frc consts  --      1.1241                 1.1763                 0.8048
 IR Inten    --     11.1869                50.9244                 1.2556

                     31                     32                     33
                      A                      A                      A
 Frequencies --   1011.1113              1055.7614              1058.1239
 Red. masses --      2.0887                 1.7030                 1.5524
 Frc consts  --      1.2581                 1.1184                 1.0241
 IR Inten    --     11.2483                44.0385                65.0318

                     34                     35                     36
                      A                      A                      A
 Frequencies --   1092.8399              1096.6431              1122.9287
 Red. masses --      3.0050                 2.8306                 4.0678
 Frc consts  --      2.1145                 2.0057                 3.0222
 IR Inten    --     31.0603               115.2615               253.6248

                     37                     38                     39
                      A                      A                      A
 Frequencies --   1150.1318              1164.5693              1171.7213
 Red. masses --      2.2535                 2.4330                 2.3946
 Frc consts  --      1.7563                 1.9441                 1.9370
 IR Inten    --      8.8698               102.7424                45.6181

                     40                     41                     42
                      A                      A                      A
 Frequencies --   1183.4120              1205.8153              1212.8162
 Red. masses --      2.2458                 1.5383                 1.6251
 Frc consts  --      1.8531                 1.3178                 1.4084
 IR Inten    --     10.6350                31.3540               100.8589

                     43                     44                     45
                      A                      A                      A
 Frequencies --   1229.0723              1240.8777              1245.6706
 Red. masses --      3.0905                 1.6713                 1.6711
 Frc consts  --      2.7506                 1.5162                 1.5278
 IR Inten    --    198.3541                55.9445                94.2303

                     46                     47                     48
                      A                      A                      A
 Frequencies --   1280.3755              1303.9710              1315.1277
 Red. masses --      1.2290                 1.2036                 1.1897
 Frc consts  --      1.1870                 1.2058                 1.2123
 IR Inten    --      5.6152                25.6014                32.4068

                     49                     50                     51
                      A                      A                      A
 Frequencies --   1330.6052              1338.1538              1345.6882
 Red. masses --      1.3368                 1.2584                 1.2658
 Frc consts  --      1.3945                 1.3276                 1.3505
 IR Inten    --     10.1933                 5.7917                 8.9657

                     52                     53                     54
                      A                      A                      A
 Frequencies --   1361.4224              1368.6062              1381.9806
 Red. masses --      1.2644                 1.4530                 1.4390
 Frc consts  --      1.3807                 1.6035                 1.6192
 IR Inten    --     23.3198                 6.9333                 9.1575

                     55                     56                     57
                      A                      A                      A
 Frequencies --   1385.3854              1391.0515              1399.3684
 Red. masses --      1.5075                 1.4759                 1.2786
 Frc consts  --      1.7047                 1.6827                 1.4752
 IR Inten    --      3.4138                32.4191                13.5023

                     58                     59                     60
                      A                      A                      A
 Frequencies --   1411.7555              1422.0706              1429.8907
 Red. masses --      1.4282                 1.3229                 1.4977
 Frc consts  --      1.6771                 1.5762                 1.8041
 IR Inten    --     34.8990                11.5954                25.8920

                     61                     62                     63
                      A                      A                      A
 Frequencies --   1451.9891              1470.5487              1471.7740
 Red. masses --      1.4344                 1.1071                 1.0940
 Frc consts  --      1.7817                 1.4105                 1.3962
 IR Inten    --     19.1136                 5.3384                 8.4325

                     64                     65                     66
                      A                      A                      A
 Frequencies --   1475.1712              1488.2727              1490.5684
 Red. masses --      1.1163                 1.1260                 1.1366
 Frc consts  --      1.4312                 1.4694                 1.4879
 IR Inten    --      9.6785                17.6885                23.4902

                     67                     68                     69
                      A                      A                      A
 Frequencies --   1496.7141              1505.6825              1505.8903
 Red. masses --      1.0865                 1.1021                 1.0963
 Frc consts  --      1.4340                 1.4721                 1.4648
 IR Inten    --      1.7009                 5.7281                 8.3598

                     70                     71                     72
                      A                      A                      A
 Frequencies --   3009.8625              3031.8428              3035.4796
 Red. masses --      1.0827                 1.0688                 1.0699
 Frc consts  --      5.7791                 5.7884                 5.8085
 IR Inten    --     79.6734                46.1380                79.6762

                     73                     74                     75
                      A                      A                      A
 Frequencies --   3039.4597              3056.0124              3061.4511
 Red. masses --      1.0700                 1.0772                 1.0686
 Frc consts  --      5.8241                 5.9275                 5.9008
 IR Inten    --     68.7626                 8.9216                23.8897

                     76                     77                     78
                      A                      A                      A
 Frequencies --   3065.4187              3070.1431              3071.7949
 Red. masses --      1.0742                 1.0616                 1.0627
 Frc consts  --      5.9471                 5.8954                 5.9080
 IR Inten    --     52.0671                40.6434                76.6751

                     79                     80                     81
                      A                      A                      A
 Frequencies --   3073.4690              3119.2768              3121.6917
 Red. masses --      1.0617                 1.0978                 1.1010
 Frc consts  --      5.9088                 6.2931                 6.3212
 IR Inten    --     41.1535                41.1372                47.1261

                     82                     83                     84
                      A                      A                      A
 Frequencies --   3122.7248              3130.8268              3137.8250
 Red. masses --      1.1010                 1.1034                 1.0966
 Frc consts  --      6.3257                 6.3722                 6.3617
 IR Inten    --     60.0557                48.3404                41.5031

                     85                     86                     87
                      A                      A                      A
 Frequencies --   3140.6326              3142.3658              3142.9436
 Red. masses --      1.0957                 1.0973                 1.0966
 Frc consts  --      6.3675                 6.3837                 6.3823
 IR Inten    --     44.5573                44.0370                25.1253

 - Thermochemistry -
 -------------------
 Temperature   298.150 Kelvin.  Pressure   1.00000 Atm.
 Atom     1 has atomic number  6 and mass  12.00000

 Molecular mass:   186.12559 amu.
 Principal axes and moments of inertia in atomic units:
                           1         2         3
     Eigenvalues --   830.361464843.634255392.77771
           X            0.99994   0.00911   0.00639
           Y           -0.00905   0.99992  -0.00865
           Z           -0.00647   0.00859   0.99994
 This molecule is an asymmetric top.
 Rotational symmetry number  1.
 Warning -- assumption of classical behavior for rotation
           may cause significant error
 Rotational temperatures (Kelvin)      0.10431     0.01788     0.01606
 Rotational constants (GHZ):           2.17344     0.37260     0.33466
 Zero-point vibrational energy     736389.0 (Joules/Mol)
                                  176.00120 (Kcal/Mol)
 Warning -- explicit consideration of  18 degrees of freedom as
           vibrations may cause significant error
 Vibrational temperatures:     27.50    83.18   104.10   203.22   311.68
          (Kelvin)            346.16   355.44   397.79   423.51   511.20
                              559.58   624.31   637.09   669.19   725.26
                              749.09   786.91   869.67   930.84  1194.43
                             1202.32  1241.75  1257.84  1272.03  1293.21
                             1344.99  1356.89  1382.04  1415.31  1431.39
                             1454.76  1519.01  1522.40  1572.35  1577.82
                             1615.64  1654.78  1675.56  1685.85  1702.67
                             1734.90  1744.97  1768.36  1785.35  1792.24
                             1842.17  1876.12  1892.18  1914.44  1925.30
                             1936.15  1958.78  1969.12  1988.36  1993.26
                             2001.41  2013.38  2031.20  2046.04  2057.29
                             2089.09  2115.79  2117.55  2122.44  2141.29
                             2144.60  2153.44  2166.34  2166.64  4330.52
                             4362.15  4367.38  4373.10  4396.92  4404.75
                             4410.45  4417.25  4419.63  4422.04  4487.94
                             4491.42  4492.90  4504.56  4514.63  4518.67
                             4521.16  4521.99

 Zero-point correction=                           0.280476 (Hartree/Particle)
 Thermal correction to Energy=                    0.292352
 Thermal correction to Enthalpy=                  0.293297
 Thermal correction to Gibbs Free Energy=         0.241212
 Sum of electronic and zero-point Energies=           -617.227030
 Sum of electronic and thermal Energies=              -617.215153
 Sum of electronic and thermal Enthalpies=            -617.214209
 Sum of electronic and thermal Free Energies=         -617.266293

                     E (Thermal)             CV                S
                      KCal/Mol        Cal/Mol-Kelvin    Cal/Mol-Kelvin
 Total                  183.454             46.886            109.621
 Electronic               0.000              0.000              0.000
 Translational            0.889              2.981             41.570
 Rotational               0.889              2.981             31.451
 Vibrational            181.676             40.924             36.600
 Vibration     1          0.593              1.986              6.724
 Vibration     2          0.596              1.974              4.530
 Vibration     3          0.598              1.967              4.088
 Vibration     4          0.615              1.912              2.787
 Vibration     5          0.645              1.816              1.987
 Vibration     6          0.658              1.778              1.799
 Vibration     7          0.661              1.768              1.752
 Vibration     8          0.678              1.717              1.555
 Vibration     9          0.689              1.684              1.449
 Vibration    10          0.731              1.564              1.143
 Vibration    11          0.757              1.494              1.004
 Vibration    12          0.795              1.396              0.846
 Vibration    13          0.802              1.377              0.818
 Vibration    14          0.823              1.327              0.751
 Vibration    15          0.859              1.241              0.648
 Vibration    16          0.876              1.204              0.608
 Vibration    17          0.902              1.146              0.551
 Vibration    18          0.963              1.022              0.442

 Optimization completed.
    -- Stationary point found.
 Normal termination of Gaussian 16 at Sun Mar 10 04:17:35 2019.
