 Gaussian 16, Revision B.01,
 Gaussian 16:  ES64L-G16RevB.01 20-Dec-2017

 ----------------------------------------------------------------------
 #M062X/6-311++G(2d,2p) opt=ModRedundant freq=noraman SCRF=(SMD,solvent
 =water)
 ----------------------------------------------------------------------

 --------------------------------
 4c1_b1_4e_4c1_PSI.inp_extract_22
 --------------------------------
 Symbolic Z-matrix:
 Charge =  0 Multiplicity = 1

 SCF Done:  E(RM062X) =  -617.505722821     A.U. after   12 cycles
 SCF Done:  E(RM062X) =  -617.507336087     A.U. after   10 cycles
 SCF Done:  E(RM062X) =  -617.507445173     A.U. after    9 cycles
 SCF Done:  E(RM062X) =  -617.507465437     A.U. after    8 cycles
 SCF Done:  E(RM062X) =  -617.507467269     A.U. after    8 cycles
 SCF Done:  E(RM062X) =  -617.507467580     A.U. after    7 cycles
 SCF Done:  E(RM062X) =  -617.507467647     A.U. after    7 cycles
 Optimization completed.
    -- Stationary point found.
 Normal termination of Gaussian 16 at Sun Mar 10 05:39:15 2019.

 ----------------------------------------------------------------------
 #N Geom=AllCheck Guess=TCheck SCRF=Check GenChk RM062X/6-311++G(2d,2p)
  Freq
 ----------------------------------------------------------------------

 Structure from the checkpoint file:  "4c1_b1_4e_4c1_PSI.inp_extract_22.chk"
 --------------------------------
 4c1_b1_4e_4c1_PSI.inp_extract_22
 --------------------------------
 Charge =  0 Multiplicity = 1

                         Standard orientation:
 ---------------------------------------------------------------------
 Center     Atomic      Atomic             Coordinates (Angstroms)
 Number     Number       Type             X           Y           Z
 ---------------------------------------------------------------------
      1          6           0        3.609757   -0.776300    0.555017
      2          6           0       -2.300298   -1.266728   -0.371857
      3          6           0       -2.903502    1.388118    0.487838
      4          8           0       -3.564289   -0.926739    0.173788
      5          8           0        1.530168    0.829526   -0.590163
      6          6           0        2.708420    1.456702   -0.078273
      7          8           0        0.009648   -0.848062   -0.393587
      8          6           0        3.905327    0.528720   -0.179713
      9          6           0       -1.497943    1.069797   -0.023109
     10          6           0        1.188249   -0.331680    0.155142
     11          6           0       -3.912002    0.427959   -0.114455
     12          6           0       -1.198369   -0.401555    0.222258
     13          6           0        2.288965   -1.367717    0.062517
     14          1           0        4.417988   -1.493281    0.417034
     15          1           0        3.534378   -0.575174    1.627029
     16          1           0       -2.314297   -1.134259   -1.460147
     17          1           0       -2.123244   -2.316312   -0.145054
     18          1           0       -2.934428    1.297564    1.575876
     19          1           0       -3.180435    2.411094    0.233094
     20          1           0        2.536147    1.742058    0.965858
     21          1           0        2.846888    2.362221   -0.664608
     22          1           0        4.107533    0.326258   -1.233894
     23          1           0        4.781176    1.024827    0.239402
     24          1           0       -1.439628    1.258187   -1.098657
     25          1           0       -0.755634    1.698145    0.468349
     26          1           0        1.019943   -0.036343    1.199508
     27          1           0       -4.906536    0.580485    0.299146
     28          1           0       -3.959526    0.558165   -1.201464
     29          1           0       -1.140367   -0.594141    1.298443
     30          1           0        2.372740   -1.672548   -0.983532
     31          1           0        2.001466   -2.238635    0.651132
 ---------------------------------------------------------------------

 SCF Done:  E(RM062X) =  -617.507467647     A.U. after    1 cycles

 The electronic state is 1-A.
 Alpha  occ. eigenvalues --  -19.63801 -19.63173 -19.62856 -10.63331 -10.58459
 Alpha  occ. eigenvalues --  -10.57624 -10.57469 -10.57411 -10.52541 -10.52526
 Alpha  occ. eigenvalues --  -10.52451 -10.52412 -10.52222  -1.20023  -1.16419
 Alpha  occ. eigenvalues --   -1.13754  -0.90472  -0.89401  -0.87055  -0.83571
 Alpha  occ. eigenvalues --   -0.74423  -0.73578  -0.72248  -0.69762  -0.65930
 Alpha  occ. eigenvalues --   -0.64547  -0.59512  -0.58226  -0.56243  -0.55344
 Alpha  occ. eigenvalues --   -0.54476  -0.52559  -0.51577  -0.50907  -0.49853
 Alpha  occ. eigenvalues --   -0.47649  -0.47029  -0.45883  -0.45304  -0.44481
 Alpha  occ. eigenvalues --   -0.41771  -0.41440  -0.40465  -0.39756  -0.39304
 Alpha  occ. eigenvalues --   -0.38934  -0.37506  -0.37020  -0.35118  -0.32617
 Alpha  occ. eigenvalues --   -0.32090
 Alpha virt. eigenvalues --    0.00517   0.01259   0.01351   0.01515   0.02615
 Alpha virt. eigenvalues --    0.02931   0.03001   0.04041   0.04141   0.04735
 Alpha virt. eigenvalues --    0.04927   0.05331   0.05846   0.06231   0.07128

 Mulliken charges:
               1
     1  C   -0.405611
     2  C   -0.306727
     3  C   -0.435343
     4  O   -0.386003
     5  O   -0.410786
     6  C   -0.110290
     7  O   -0.400116
     8  C   -0.381711
     9  C   -0.220745
    10  C    0.156532
    11  C   -0.220731
    12  C   -0.119342
    13  C   -0.272955
    14  H    0.198197
    15  H    0.175189
    16  H    0.201976
    17  H    0.215552
    18  H    0.176532
    19  H    0.177216
    20  H    0.153015
    21  H    0.204804
    22  H    0.163637
    23  H    0.182527
    24  H    0.243648
    25  H    0.172775
    26  H    0.247832
    27  H    0.216191
    28  H    0.156740
    29  H    0.256371
    30  H    0.200984
    31  H    0.170644
 Sum of Mulliken charges =  -0.00000

 Dipole moment (field-independent basis, Debye):
    X=              2.5494    Y=              2.1720    Z=              2.2836  Tot=              4.0537
 Quadrupole moment (field-independent basis, Debye-Ang):
   XX=            -74.3704   YY=            -79.2314   ZZ=            -80.4689
   XY=             -7.0858   XZ=              5.3216   YZ=              0.8565

  Exact polarizability: 185.873   0.249 174.463  -0.778   0.836 167.400
 Approx polarizability: 146.876   0.556 143.180  -0.861   0.134 142.337

                      1                      2                      3
                      A                      A                      A
 Frequencies --     33.0991                58.3815                77.1090
 Red. masses --      3.3473                 4.1674                 3.6812
 Frc consts  --      0.0022                 0.0084                 0.0129
 IR Inten    --      2.9528                 2.6514                 0.4128

                      4                      5                      6
                      A                      A                      A
 Frequencies --    149.6855               220.1622               248.9141
 Red. masses --      2.8489                 3.5701                 2.0571
 Frc consts  --      0.0376                 0.1020                 0.0751
 IR Inten    --      1.4569                 7.6276                 8.1533

                      7                      8                      9
                      A                      A                      A
 Frequencies --    251.4471               261.0406               296.1122
 Red. masses --      2.1904                 4.1085                 3.0009
 Frc consts  --      0.0816                 0.1649                 0.1550
 IR Inten    --      5.4453                 0.9983                 0.2179

                     10                     11                     12
                      A                      A                      A
 Frequencies --    357.5859               393.6879               437.4395
 Red. masses --      2.0296                 2.3863                 3.6897
 Frc consts  --      0.1529                 0.2179                 0.4160
 IR Inten    --      8.7998                15.0151                 5.3291

                     13                     14                     15
                      A                      A                      A
 Frequencies --    444.9299               464.3992               506.3262
 Red. masses --      3.5382                 2.7701                 2.6543
 Frc consts  --      0.4127                 0.3520                 0.4009
 IR Inten    --      4.6962                 0.0880                 3.9046

                     16                     17                     18
                      A                      A                      A
 Frequencies --    520.0944               542.1432               603.1792
 Red. masses --      2.8665                 2.3091                 2.3063
 Frc consts  --      0.4568                 0.3999                 0.4944
 IR Inten    --      0.9176                 7.9225                15.4832

                     19                     20                     21
                      A                      A                      A
 Frequencies --    647.2728               827.5278               833.8693
 Red. masses --      2.8757                 2.2310                 1.7688
 Frc consts  --      0.7099                 0.9002                 0.7246
 IR Inten    --      5.2086                 0.9441                 9.8133

                     22                     23                     24
                      A                      A                      A
 Frequencies --    862.9982               878.7344               884.4217
 Red. masses --      1.9043                 1.3917                 1.8868
 Frc consts  --      0.8356                 0.6331                 0.8696
 IR Inten    --     14.8477                14.0223                12.7235

                     25                     26                     27
                      A                      A                      A
 Frequencies --    898.8571               933.8366               943.5317
 Red. masses --      2.4298                 2.4536                 2.1775
 Frc consts  --      1.1566                 1.2607                 1.1421
 IR Inten    --      9.6543                44.4894                71.4349

                     28                     29                     30
                      A                      A                      A
 Frequencies --    961.0647               985.9203              1001.1979
 Red. masses --      2.0656                 2.0459                 1.4229
 Frc consts  --      1.1241                 1.1717                 0.8404
 IR Inten    --      6.7989                45.7489                 3.7353

                     31                     32                     33
                      A                      A                      A
 Frequencies --   1011.5236              1057.0081              1059.2350
 Red. masses --      2.0802                 1.5811                 1.6735
 Frc consts  --      1.2541                 1.0408                 1.1062
 IR Inten    --      8.4983               120.7301                 2.1101

                     34                     35                     36
                      A                      A                      A
 Frequencies --   1088.4307              1104.9473              1118.1819
 Red. masses --      2.6304                 3.0618                 4.5686
 Frc consts  --      1.8360                 2.2024                 3.3656
 IR Inten    --     70.2196                53.7767               276.7895

                     37                     38                     39
                      A                      A                      A
 Frequencies --   1151.5750              1168.6569              1177.5961
 Red. masses --      2.2525                 2.2884                 2.3389
 Frc consts  --      1.7599                 1.8414                 1.9110
 IR Inten    --      4.7489               101.3423                48.6833

                     40                     41                     42
                      A                      A                      A
 Frequencies --   1184.2371              1206.6195              1211.8748
 Red. masses --      2.3368                 1.5865                 1.5649
 Frc consts  --      1.9308                 1.3609                 1.3541
 IR Inten    --      1.5993                67.7564                29.9218

                     43                     44                     45
                      A                      A                      A
 Frequencies --   1229.4445              1239.9070              1247.2227
 Red. masses --      3.1996                 1.7460                 1.5894
 Frc consts  --      2.8495                 1.5815                 1.4567
 IR Inten    --    313.1714                59.1972                24.3295

                     46                     47                     48
                      A                      A                      A
 Frequencies --   1280.4284              1302.1859              1315.5255
 Red. masses --      1.2342                 1.1789                 1.1953
 Frc consts  --      1.1922                 1.1778                 1.2188
 IR Inten    --      6.1678                15.7260                28.7081

                     49                     50                     51
                      A                      A                      A
 Frequencies --   1333.4732              1341.3455              1347.8253
 Red. masses --      1.3030                 1.2312                 1.2843
 Frc consts  --      1.3651                 1.3051                 1.3746
 IR Inten    --     14.1335                 1.4419                 7.3694

                     52                     53                     54
                      A                      A                      A
 Frequencies --   1356.1644              1369.1702              1381.6259
 Red. masses --      1.2491                 1.4445                 1.4410
 Frc consts  --      1.3536                 1.5954                 1.6207
 IR Inten    --     27.2637                 2.7742                10.2197

                     55                     56                     57
                      A                      A                      A
 Frequencies --   1385.5806              1393.0668              1402.2763
 Red. masses --      1.4772                 1.3276                 1.5086
 Frc consts  --      1.6709                 1.5179                 1.7478
 IR Inten    --      3.8565                 7.1880                23.7612

                     58                     59                     60
                      A                      A                      A
 Frequencies --   1411.5608              1419.5106              1433.0135
 Red. masses --      1.4114                 1.3549                 1.4749
 Frc consts  --      1.6569                 1.6086                 1.7845
 IR Inten    --     24.5786                16.8332                12.9656

                     61                     62                     63
                      A                      A                      A
 Frequencies --   1453.9594              1470.1378              1472.5622
 Red. masses --      1.3948                 1.0968                 1.1289
 Frc consts  --      1.7372                 1.3966                 1.4423
 IR Inten    --     34.9149                 7.4411                 2.8845

                     64                     65                     66
                      A                      A                      A
 Frequencies --   1473.9166              1485.5548              1490.5254
 Red. masses --      1.1214                 1.1403                 1.1278
 Frc consts  --      1.4354                 1.4827                 1.4762
 IR Inten    --     18.7000                14.5142                27.1868

                     67                     68                     69
                      A                      A                      A
 Frequencies --   1498.7502              1504.3506              1507.3143
 Red. masses --      1.0857                 1.0975                 1.1027
 Frc consts  --      1.4369                 1.4634                 1.4761
 IR Inten    --      1.6827                 5.4238                 8.6887

                     70                     71                     72
                      A                      A                      A
 Frequencies --   3017.0494              3034.0093              3034.7007
 Red. masses --      1.0837                 1.0695                 1.0703
 Frc consts  --      5.8118                 5.8007                 5.8076
 IR Inten    --     59.4471                45.8377                58.1071

                     73                     74                     75
                      A                      A                      A
 Frequencies --   3037.2628              3049.9502              3060.9033
 Red. masses --      1.0696                 1.0810                 1.0687
 Frc consts  --      5.8136                 5.9244                 5.8995
 IR Inten    --     78.0216                55.7149                21.7889

                     76                     77                     78
                      A                      A                      A
 Frequencies --   3064.6303              3069.3313              3070.6427
 Red. masses --      1.0661                 1.0621                 1.0613
 Frc consts  --      5.8994                 5.8951                 5.8958
 IR Inten    --     46.9969                27.3705                61.9222

                     79                     80                     81
                      A                      A                      A
 Frequencies --   3072.3195              3118.4832              3121.6700
 Red. masses --      1.0621                 1.0977                 1.0989
 Frc consts  --      5.9068                 6.2896                 6.3093
 IR Inten    --     51.8945                42.0585                35.6675

                     82                     83                     84
                      A                      A                      A
 Frequencies --   3121.9093              3125.6497              3128.0009
 Red. masses --      1.1010                 1.1029                 1.1032
 Frc consts  --      6.3224                 6.3487                 6.3596
 IR Inten    --     55.5286                57.5341                50.4155

                     85                     86                     87
                      A                      A                      A
 Frequencies --   3138.9903              3140.8893              3141.4092
 Red. masses --      1.0962                 1.0975                 1.0957
 Frc consts  --      6.3639                 6.3788                 6.3708
 IR Inten    --     44.0288                39.8081                36.9903

 - Thermochemistry -
 -------------------
 Temperature   298.150 Kelvin.  Pressure   1.00000 Atm.
 Atom     1 has atomic number  6 and mass  12.00000

 Molecular mass:   186.12559 amu.
 Principal axes and moments of inertia in atomic units:
                           1         2         3
     Eigenvalues --   830.435704811.065805382.11716
           X            0.99994  -0.00986   0.00447
           Y            0.00983   0.99992   0.00788
           Z           -0.00455  -0.00783   0.99996
 This molecule is an asymmetric top.
 Rotational symmetry number  1.
 Warning -- assumption of classical behavior for rotation
           may cause significant error
 Rotational temperatures (Kelvin)      0.10430     0.01800     0.01609
 Rotational constants (GHZ):           2.17325     0.37512     0.33532
 Zero-point vibrational energy     736654.7 (Joules/Mol)
                                  176.06471 (Kcal/Mol)
 Warning -- explicit consideration of  18 degrees of freedom as
           vibrations may cause significant error
 Vibrational temperatures:     47.62    84.00   110.94   215.36   316.76
          (Kelvin)            358.13   361.78   375.58   426.04   514.49
                              566.43   629.38   640.15   668.17   728.49
                              748.30   780.02   867.84   931.28  1190.63
                             1199.75  1241.66  1264.30  1272.49  1293.25
                             1343.58  1357.53  1382.76  1418.52  1440.50
                             1455.36  1520.80  1524.00  1566.01  1589.77
                             1608.81  1656.86  1681.44  1694.30  1703.85
                             1736.06  1743.62  1768.90  1783.95  1794.48
                             1842.25  1873.56  1892.75  1918.57  1929.90
                             1939.22  1951.22  1969.93  1987.85  1993.54
                             2004.31  2017.56  2030.92  2042.36  2061.79
                             2091.92  2115.20  2118.69  2120.64  2137.38
                             2144.53  2156.37  2164.43  2168.69  4340.86
                             4365.26  4366.26  4369.94  4388.20  4403.96
                             4409.32  4416.08  4417.97  4420.38  4486.80
                             4491.39  4491.73  4497.11  4500.50  4516.31
                             4519.04  4519.79

 Zero-point correction=                           0.280577 (Hartree/Particle)
 Thermal correction to Energy=                    0.292381
 Thermal correction to Enthalpy=                  0.293325
 Thermal correction to Gibbs Free Energy=         0.241919
 Sum of electronic and zero-point Energies=           -617.226891
 Sum of electronic and thermal Energies=              -617.215087
 Sum of electronic and thermal Enthalpies=            -617.214142
 Sum of electronic and thermal Free Energies=         -617.265549

                     E (Thermal)             CV                S
                      KCal/Mol        Cal/Mol-Kelvin    Cal/Mol-Kelvin
 Total                  183.472             46.828            108.193
 Electronic               0.000              0.000              0.000
 Translational            0.889              2.981             41.570
 Rotational               0.889              2.981             31.442
 Vibrational            181.694             40.866             35.181
 Vibration     1          0.594              1.983              5.634
 Vibration     2          0.596              1.974              4.511
 Vibration     3          0.599              1.964              3.963
 Vibration     4          0.618              1.903              2.676
 Vibration     5          0.647              1.810              1.958
 Vibration     6          0.662              1.765              1.738
 Vibration     7          0.663              1.760              1.720
 Vibration     8          0.669              1.744              1.655
 Vibration     9          0.690              1.681              1.439
 Vibration    10          0.733              1.560              1.133
 Vibration    11          0.761              1.484              0.986
 Vibration    12          0.798              1.389              0.835
 Vibration    13          0.804              1.372              0.811
 Vibration    14          0.822              1.329              0.753
 Vibration    15          0.862              1.236              0.642
 Vibration    16          0.875              1.205              0.610
 Vibration    17          0.897              1.157              0.561
 Vibration    18          0.962              1.025              0.444

 Optimization completed.
    -- Stationary point found.
 Normal termination of Gaussian 16 at Sun Mar 10 06:39:40 2019.
