 Gaussian 16, Revision B.01,
 Gaussian 16:  ES64L-G16RevB.01 20-Dec-2017

 ----------------------------------------------------------------------
 #M062X/6-311++G(2d,2p) opt=ModRedundant freq=noraman SCRF=(SMD,solvent
 =water)
 ----------------------------------------------------------------------

 --------------------------------
 4c1_b1_4e_4c1_PSI.inp_extract_11
 --------------------------------
 Symbolic Z-matrix:
 Charge =  0 Multiplicity = 1

 SCF Done:  E(RM062X) =  -617.501584478     A.U. after   12 cycles
 SCF Done:  E(RM062X) =  -617.503035192     A.U. after   11 cycles
 SCF Done:  E(RM062X) =  -617.503423628     A.U. after   11 cycles
 SCF Done:  E(RM062X) =  -617.503595583     A.U. after   10 cycles
 SCF Done:  E(RM062X) =  -617.503611695     A.U. after    8 cycles
 SCF Done:  E(RM062X) =  -617.503612696     A.U. after    7 cycles
 Optimization completed.
    -- Stationary point found.
 Normal termination of Gaussian 16 at Sun Mar 10 04:03:26 2019.

 ----------------------------------------------------------------------
 #N Geom=AllCheck Guess=TCheck SCRF=Check GenChk RM062X/6-311++G(2d,2p)
  Freq
 ----------------------------------------------------------------------

 Structure from the checkpoint file:  "4c1_b1_4e_4c1_PSI.inp_extract_11.chk"
 --------------------------------
 4c1_b1_4e_4c1_PSI.inp_extract_11
 --------------------------------
 Charge =  0 Multiplicity = 1

                         Standard orientation:
 ---------------------------------------------------------------------
 Center     Atomic      Atomic             Coordinates (Angstroms)
 Number     Number       Type             X           Y           Z
 ---------------------------------------------------------------------
      1          6           0        3.377252   -0.786153    0.741811
      2          6           0       -1.382064    1.039940   -0.257073
      3          6           0       -3.495484   -0.827984    0.357328
      4          8           0       -2.752232    1.414283   -0.185283
      5          8           0        1.463078    0.847542   -0.626883
      6          6           0        2.467578    1.465095    0.181166
      7          8           0        0.049642   -0.917905   -0.901686
      8          6           0        3.721623    0.610755    0.230071
      9          6           0       -2.066948   -1.340341    0.188993
     10          6           0        1.060632   -0.402028   -0.086555
     11          6           0       -3.473502    0.632608    0.765813
     12          6           0       -1.282747   -0.411899   -0.726178
     13          6           0        2.221386   -1.374406   -0.067843
     14          1           0        4.244432   -1.443315    0.692443
     15          1           0        3.080593   -0.719967    1.791978
     16          1           0       -0.917753    1.177276    0.724916
     17          1           0       -0.913168    1.713094   -0.968778
     18          1           0       -4.038187   -0.922058   -0.585797
     19          1           0       -4.030417   -1.409746    1.108073
     20          1           0        2.069177    1.616621    1.191125
     21          1           0        2.657379    2.438912   -0.264404
     22          1           0        4.143535    0.546449   -0.775414
     23          1           0        4.459878    1.092078    0.872085
     24          1           0       -1.567572   -1.369850    1.162785
     25          1           0       -2.053308   -2.348405   -0.224686
     26          1           0        0.692145   -0.236658    0.934210
     27          1           0       -4.476307    1.052631    0.805691
     28          1           0       -3.005357    0.747765    1.750002
     29          1           0       -1.726168   -0.449316   -1.723436
     30          1           0        2.528010   -1.551016   -1.101598
     31          1           0        1.882825   -2.319378    0.356434
 ---------------------------------------------------------------------

 SCF Done:  E(RM062X) =  -617.503612696     A.U. after    1 cycles

 The electronic state is 1-A.
 Alpha  occ. eigenvalues --  -19.63680 -19.63128 -19.62904 -10.63297 -10.58515
 Alpha  occ. eigenvalues --  -10.57698 -10.57505 -10.57389 -10.52532 -10.52488
 Alpha  occ. eigenvalues --  -10.52422 -10.52421 -10.52238  -1.19922  -1.16305
 Alpha  occ. eigenvalues --   -1.13610  -0.90393  -0.89435  -0.86651  -0.83925
 Alpha  occ. eigenvalues --   -0.74563  -0.73911  -0.72301  -0.69642  -0.65824
 Alpha  occ. eigenvalues --   -0.64449  -0.59519  -0.57343  -0.57040  -0.55410
 Alpha  occ. eigenvalues --   -0.53917  -0.52685  -0.51181  -0.50932  -0.49790
 Alpha  occ. eigenvalues --   -0.48393  -0.47030  -0.45703  -0.45191  -0.43880
 Alpha  occ. eigenvalues --   -0.42356  -0.41520  -0.40193  -0.39970  -0.39422
 Alpha  occ. eigenvalues --   -0.38743  -0.37592  -0.37265  -0.34307  -0.32548
 Alpha  occ. eigenvalues --   -0.32148
 Alpha virt. eigenvalues --    0.00466   0.01265   0.01316   0.01585   0.02603
 Alpha virt. eigenvalues --    0.02932   0.03029   0.03925   0.04166   0.04820
 Alpha virt. eigenvalues --    0.05048   0.05243   0.05958   0.06441   0.07645

 Mulliken charges:
               1
     1  C   -0.398847
     2  C   -0.278597
     3  C   -0.379787
     4  O   -0.405194
     5  O   -0.406081
     6  C   -0.101797
     7  O   -0.405852
     8  C   -0.366696
     9  C   -0.121331
    10  C    0.006668
    11  C   -0.174983
    12  C   -0.255412
    13  C   -0.251817
    14  H    0.202241
    15  H    0.171153
    16  H    0.227619
    17  H    0.231325
    18  H    0.175804
    19  H    0.174162
    20  H    0.151055
    21  H    0.202147
    22  H    0.162558
    23  H    0.183118
    24  H    0.173898
    25  H    0.184974
    26  H    0.303717
    27  H    0.222281
    28  H    0.143116
    29  H    0.257496
    30  H    0.201835
    31  H    0.171226
 Sum of Mulliken charges =  -0.00000

 Dipole moment (field-independent basis, Debye):
    X=              1.2862    Y=             -1.2627    Z=              4.3998  Tot=              4.7547
 Quadrupole moment (field-independent basis, Debye-Ang):
   XX=            -70.1442   YY=            -83.1854   ZZ=            -81.0158
   XY=              7.3258   XZ=             -0.3393   YZ=              0.8196

  Exact polarizability: 187.825   3.076 172.943   0.319   0.567 167.642
 Approx polarizability: 148.614   1.818 142.000   0.636  -0.009 142.426

                      1                      2                      3
                      A                      A                      A
 Frequencies --     20.5226                67.8348                80.6777
 Red. masses --      3.3697                 3.6057                 4.0333
 Frc consts  --      0.0008                 0.0098                 0.0155
 IR Inten    --      1.6308                 0.9791                 1.3419

                      4                      5                      6
                      A                      A                      A
 Frequencies --    146.0918               213.4866               249.1148
 Red. masses --      2.7926                 3.2516                 2.0062
 Frc consts  --      0.0351                 0.0873                 0.0734
 IR Inten    --      2.1801                 1.4510                 9.0506

                      7                      8                      9
                      A                      A                      A
 Frequencies --    251.5842               281.4637               314.6188
 Red. masses --      2.3513                 3.4196                 3.3128
 Frc consts  --      0.0877                 0.1596                 0.1932
 IR Inten    --      2.9997                11.7186                 4.5172

                     10                     11                     12
                      A                      A                      A
 Frequencies --    363.3835               388.8897               426.1784
 Red. masses --      2.1733                 2.6988                 2.9666
 Frc consts  --      0.1691                 0.2405                 0.3175
 IR Inten    --      5.6453                12.7772                 7.3035

                     13                     14                     15
                      A                      A                      A
 Frequencies --    448.0695               471.0288               474.0517
 Red. masses --      3.6009                 3.4528                 2.8412
 Frc consts  --      0.4259                 0.4514                 0.3762
 IR Inten    --      3.4446                 2.1818                 0.9940

                     16                     17                     18
                      A                      A                      A
 Frequencies --    532.4272               547.5301               603.3844
 Red. masses --      2.1326                 2.3247                 2.4466
 Frc consts  --      0.3562                 0.4106                 0.5248
 IR Inten    --      3.8290                 9.6800                 7.7527

                     19                     20                     21
                      A                      A                      A
 Frequencies --    646.5027               823.3148               835.1813
 Red. masses --      3.3273                 2.1462                 1.7703
 Frc consts  --      0.8194                 0.8571                 0.7276
 IR Inten    --      6.0209                 2.7480                 6.9111

                     22                     23                     24
                      A                      A                      A
 Frequencies --    863.1547               874.0683               881.8899
 Red. masses --      1.9106                 1.4950                 1.8750
 Frc consts  --      0.8387                 0.6730                 0.8592
 IR Inten    --     18.5653                15.2958                 8.5158

                     25                     26                     27
                      A                      A                      A
 Frequencies --    895.9165               934.3399               941.2810
 Red. masses --      2.3569                 2.4552                 2.2479
 Frc consts  --      1.1146                 1.2628                 1.1735
 IR Inten    --     19.4114                17.9316                85.7947

                     28                     29                     30
                      A                      A                      A
 Frequencies --    959.1535               983.1297               998.3307
 Red. masses --      2.1881                 1.5239                 1.9108
 Frc consts  --      1.1860                 0.8678                 1.1221
 IR Inten    --     11.3732                12.6617                43.6954

                     31                     32                     33
                      A                      A                      A
 Frequencies --   1003.0396              1048.1824              1059.2085
 Red. masses --      1.9872                 1.7199                 1.5212
 Frc consts  --      1.1779                 1.1134                 1.0056
 IR Inten    --     12.0177                23.4075                85.4729

                     34                     35                     36
                      A                      A                      A
 Frequencies --   1074.3479              1099.3113              1123.3985
 Red. masses --      2.9127                 2.5577                 3.8208
 Frc consts  --      1.9808                 1.8211                 2.8410
 IR Inten    --     30.7372                88.3505               290.0851

                     37                     38                     39
                      A                      A                      A
 Frequencies --   1141.6713              1156.4537              1172.0504
 Red. masses --      4.0458                 2.4089                 2.2830
 Frc consts  --      3.1069                 1.8981                 1.8478
 IR Inten    --    209.8396                 3.3522                16.8158

                     40                     41                     42
                      A                      A                      A
 Frequencies --   1188.4073              1205.4254              1207.5299
 Red. masses --      2.2193                 1.5462                 1.8535
 Frc consts  --      1.8467                 1.3238                 1.5923
 IR Inten    --     14.5944                35.5476                61.9417

                     43                     44                     45
                      A                      A                      A
 Frequencies --   1213.5849              1240.7112              1247.4750
 Red. masses --      2.0619                 1.6709                 1.5413
 Frc consts  --      1.7892                 1.5155                 1.4132
 IR Inten    --    212.1600                38.8142                16.7206

                     46                     47                     48
                      A                      A                      A
 Frequencies --   1278.8457              1306.8085              1316.1125
 Red. masses --      1.2262                 1.1712                 1.2009
 Frc consts  --      1.1816                 1.1784                 1.2256
 IR Inten    --      4.8791                17.6128                36.1045

                     49                     50                     51
                      A                      A                      A
 Frequencies --   1338.8785              1345.4285              1352.4103
 Red. masses --      1.3092                 1.2953                 1.3454
 Frc consts  --      1.3827                 1.3815                 1.4498
 IR Inten    --      9.7212                 6.6000                 1.5422

                     52                     53                     54
                      A                      A                      A
 Frequencies --   1367.9399              1377.9797              1384.5947
 Red. masses --      1.4249                 1.3529                 1.3992
 Frc consts  --      1.5710                 1.5136                 1.5804
 IR Inten    --      0.7081                21.9803                 3.1309

                     55                     56                     57
                      A                      A                      A
 Frequencies --   1385.2781              1397.5249              1401.3345
 Red. masses --      1.5027                 1.2500                 1.4010
 Frc consts  --      1.6991                 1.4384                 1.6210
 IR Inten    --      2.3945                17.2034                22.6702

                     58                     59                     60
                      A                      A                      A
 Frequencies --   1414.8971              1421.7091              1438.8819
 Red. masses --      1.3653                 1.3272                 1.4485
 Frc consts  --      1.6103                 1.5805                 1.7669
 IR Inten    --      9.5471                15.5691                30.4067

                     61                     62                     63
                      A                      A                      A
 Frequencies --   1445.3980              1470.3608              1472.7015
 Red. masses --      1.3962                 1.1160                 1.1120
 Frc consts  --      1.7186                 1.4216                 1.4209
 IR Inten    --     49.1412                 3.4709                10.8048

                     64                     65                     66
                      A                      A                      A
 Frequencies --   1473.0492              1485.6607              1490.3723
 Red. masses --      1.0994                 1.1208                 1.1221
 Frc consts  --      1.4056                 1.4575                 1.4685
 IR Inten    --      9.5745                14.4104                25.0436

                     67                     68                     69
                      A                      A                      A
 Frequencies --   1495.0498              1504.6404              1505.1838
 Red. masses --      1.0890                 1.0995                 1.0977
 Frc consts  --      1.4341                 1.4666                 1.4653
 IR Inten    --      0.6836                 7.7162                 4.7667

                     70                     71                     72
                      A                      A                      A
 Frequencies --   3024.0774              3034.2386              3034.9006
 Red. masses --      1.0818                 1.0707                 1.0697
 Frc consts  --      5.8287                 5.8077                 5.8049
 IR Inten    --     40.2128                77.9915                73.6135

                     73                     74                     75
                      A                      A                      A
 Frequencies --   3050.7807              3051.5470              3060.2318
 Red. masses --      1.0668                 1.0699                 1.0685
 Frc consts  --      5.8502                 5.8697                 5.8958
 IR Inten    --     14.4379                56.5968                25.6024

                     76                     77                     78
                      A                      A                      A
 Frequencies --   3069.8440              3070.6867              3072.1232
 Red. masses --      1.0618                 1.0625                 1.0615
 Frc consts  --      5.8957                 5.9028                 5.9026
 IR Inten    --     39.1412                33.0855                49.8123

                     79                     80                     81
                      A                      A                      A
 Frequencies --   3079.4809              3118.1955              3118.8678
 Red. masses --      1.0830                 1.0974                 1.0964
 Frc consts  --      6.0514                 6.2865                 6.2836
 IR Inten    --     77.4986                39.9896                37.9230

                     82                     83                     84
                      A                      A                      A
 Frequencies --   3122.0551              3122.5925              3128.6542
 Red. masses --      1.1021                 1.1029                 1.1038
 Frc consts  --      6.3291                 6.3359                 6.3660
 IR Inten    --     57.0677                60.5710                53.2714

                     85                     86                     87
                      A                      A                      A
 Frequencies --   3138.1794              3141.1439              3161.8897
 Red. masses --      1.0963                 1.0958                 1.0974
 Frc consts  --      6.3611                 6.3700                 6.4640
 IR Inten    --     45.2489                41.2679                27.1576

 - Thermochemistry -
 -------------------
 Temperature   298.150 Kelvin.  Pressure   1.00000 Atm.
 Atom     1 has atomic number  6 and mass  12.00000

 Molecular mass:   186.12559 amu.
 Principal axes and moments of inertia in atomic units:
                           1         2         3
     Eigenvalues --   962.480154334.392944842.69484
           X            0.99997   0.00805   0.00036
           Y           -0.00805   0.99997   0.00104
           Z           -0.00035  -0.00104   1.00000
 This molecule is an asymmetric top.
 Rotational symmetry number  1.
 Warning -- assumption of classical behavior for rotation
           may cause significant error
 Rotational temperatures (Kelvin)      0.08999     0.01998     0.01789
 Rotational constants (GHZ):           1.87509     0.41638     0.37267
 Zero-point vibrational energy     736707.8 (Joules/Mol)
                                  176.07739 (Kcal/Mol)
 Warning -- explicit consideration of  18 degrees of freedom as
           vibrations may cause significant error
 Vibrational temperatures:     29.53    97.60   116.08   210.19   307.16
          (Kelvin)            358.42   361.97   404.96   452.67   522.83
                              559.53   613.18   644.67   677.71   682.05
                              766.04   787.77   868.14   930.17  1184.57
                             1201.64  1241.89  1257.59  1268.84  1289.02
                             1344.31  1354.29  1380.01  1414.50  1436.38
                             1443.15  1508.10  1523.96  1545.75  1581.66
                             1616.32  1642.61  1663.88  1686.32  1709.85
                             1734.34  1737.37  1746.08  1785.11  1794.84
                             1839.97  1880.21  1893.59  1926.35  1935.77
                             1945.82  1968.16  1982.61  1992.12  1993.11
                             2010.73  2016.21  2035.72  2045.52  2070.23
                             2079.61  2115.52  2118.89  2119.39  2137.53
                             2144.31  2151.04  2164.84  2165.62  4350.97
                             4365.59  4366.55  4389.39  4390.50  4402.99
                             4416.82  4418.03  4420.10  4430.69  4486.39
                             4487.36  4491.94  4492.71  4501.44  4515.14
                             4519.41  4549.25

 Zero-point correction=                           0.280597 (Hartree/Particle)
 Thermal correction to Energy=                    0.292391
 Thermal correction to Enthalpy=                  0.293335
 Thermal correction to Gibbs Free Energy=         0.241718
 Sum of electronic and zero-point Energies=           -617.223016
 Sum of electronic and thermal Energies=              -617.211222
 Sum of electronic and thermal Enthalpies=            -617.210278
 Sum of electronic and thermal Free Energies=         -617.261894

                     E (Thermal)             CV                S
                      KCal/Mol        Cal/Mol-Kelvin    Cal/Mol-Kelvin
 Total                  183.478             46.874            108.636
 Electronic               0.000              0.000              0.000
 Translational            0.889              2.981             41.570
 Rotational               0.889              2.981             31.380
 Vibrational            181.701             40.912             35.686
 Vibration     1          0.593              1.986              6.583
 Vibration     2          0.598              1.970              4.215
 Vibration     3          0.600              1.962              3.874
 Vibration     4          0.617              1.907              2.723
 Vibration     5          0.644              1.820              2.014
 Vibration     6          0.662              1.764              1.737
 Vibration     7          0.664              1.760              1.719
 Vibration     8          0.681              1.708              1.525
 Vibration     9          0.702              1.646              1.338
 Vibration    10          0.737              1.548              1.108
 Vibration    11          0.757              1.494              1.004
 Vibration    12          0.788              1.413              0.871
 Vibration    13          0.807              1.365              0.802
 Vibration    14          0.828              1.314              0.735
 Vibration    15          0.831              1.308              0.726
 Vibration    16          0.887              1.178              0.582
 Vibration    17          0.903              1.145              0.549
 Vibration    18          0.962              1.025              0.444

 Optimization completed.
    -- Stationary point found.
 Normal termination of Gaussian 16 at Sun Mar 10 05:01:01 2019.
