 Gaussian 16, Revision B.01,
 Gaussian 16:  ES64L-G16RevB.01 20-Dec-2017

 ----------------------------------------------------------------------
 #M062X/6-311++G(2d,2p) opt=ModRedundant freq=noraman SCRF=(SMD,solvent
 =water)
 ----------------------------------------------------------------------

 -------------------------------
 4c1_b1_4e_4c1_PSI.inp_extract_9
 -------------------------------
 Symbolic Z-matrix:
 Charge =  0 Multiplicity = 1

 SCF Done:  E(RM062X) =  -617.499790396     A.U. after   12 cycles
 SCF Done:  E(RM062X) =  -617.501379270     A.U. after   11 cycles
 SCF Done:  E(RM062X) =  -617.501614226     A.U. after   11 cycles
 SCF Done:  E(RM062X) =  -617.501770484     A.U. after   10 cycles
 SCF Done:  E(RM062X) =  -617.501780618     A.U. after    8 cycles
 SCF Done:  E(RM062X) =  -617.501781203     A.U. after    7 cycles
 Optimization completed.
    -- Stationary point found.
 Normal termination of Gaussian 16 at Sun Mar 10 02:40:54 2019.

 ----------------------------------------------------------------------
 #N Geom=AllCheck Guess=TCheck SCRF=Check GenChk RM062X/6-311++G(2d,2p)
  Freq
 ----------------------------------------------------------------------

 Structure from the checkpoint file:  "4c1_b1_4e_4c1_PSI.inp_extract_9.chk"
 -------------------------------
 4c1_b1_4e_4c1_PSI.inp_extract_9
 -------------------------------
 Charge =  0 Multiplicity = 1

                         Standard orientation:
 ---------------------------------------------------------------------
 Center     Atomic      Atomic             Coordinates (Angstroms)
 Number     Number       Type             X           Y           Z
 ---------------------------------------------------------------------
      1          6           0        3.433017   -0.701838    0.837622
      2          6           0       -1.355902    0.944962    0.238741
      3          6           0       -3.670852   -0.709709   -0.095112
      4          8           0       -2.660593    1.489666    0.098346
      5          8           0        1.559253    0.712925   -0.801899
      6          6           0        2.640512    1.423766   -0.195424
      7          8           0        0.031573   -0.960376   -0.622746
      8          6           0        3.838302    0.512618    0.005449
      9          6           0       -2.276375   -1.333131   -0.080016
     10          6           0        1.106050   -0.351584    0.026980
     11          6           0       -3.655519    0.618980    0.637710
     12          6           0       -1.259586   -0.330109   -0.601677
     13          6           0        2.203900   -1.375088    0.225696
     14          1           0        4.253788   -1.414026    0.911056
     15          1           0        3.194159   -0.377089    1.853837
     16          1           0       -1.172089    0.724845    1.295201
     17          1           0       -0.656258    1.706907   -0.096076
     18          1           0       -3.990534   -0.543629   -1.125989
     19          1           0       -4.396176   -1.374285    0.374296
     20          1           0        2.305617    1.831411    0.765526
     21          1           0        2.869186    2.253353   -0.860546
     22          1           0        4.203271    0.189634   -0.972144
     23          1           0        4.637847    1.071413    0.492630
     24          1           0       -1.994449   -1.602160    0.941813
     25          1           0       -2.247139   -2.238688   -0.686435
     26          1           0        0.806990    0.068334    0.993292
     27          1           0       -4.603703    1.142779    0.537658
     28          1           0       -3.449882    0.464346    1.702731
     29          1           0       -1.500954   -0.059222   -1.632521
     30          1           0        2.446477   -1.801434   -0.750472
     31          1           0        1.830704   -2.173408    0.866725
 ---------------------------------------------------------------------

 SCF Done:  E(RM062X) =  -617.501781203     A.U. after    1 cycles

 The electronic state is 1-A.
 Alpha  occ. eigenvalues --  -19.63621 -19.63242 -19.62872 -10.63353 -10.58582
 Alpha  occ. eigenvalues --  -10.57787 -10.57475 -10.57429 -10.52545 -10.52533
 Alpha  occ. eigenvalues --  -10.52487 -10.52444 -10.52233  -1.19857  -1.16429
 Alpha  occ. eigenvalues --   -1.13506  -0.90549  -0.89485  -0.86597  -0.83978
 Alpha  occ. eigenvalues --   -0.74927  -0.73714  -0.72254  -0.69383  -0.65707
 Alpha  occ. eigenvalues --   -0.64725  -0.59831  -0.57508  -0.57214  -0.54994
 Alpha  occ. eigenvalues --   -0.54016  -0.52553  -0.51805  -0.50882  -0.49683
 Alpha  occ. eigenvalues --   -0.48357  -0.46986  -0.45468  -0.45312  -0.43884
 Alpha  occ. eigenvalues --   -0.42399  -0.41695  -0.40360  -0.39632  -0.39570
 Alpha  occ. eigenvalues --   -0.38703  -0.37540  -0.37305  -0.34236  -0.32820
 Alpha  occ. eigenvalues --   -0.32111
 Alpha virt. eigenvalues --    0.00468   0.01267   0.01330   0.01582   0.02589
 Alpha virt. eigenvalues --    0.02888   0.02957   0.04077   0.04130   0.04768
 Alpha virt. eigenvalues --    0.04908   0.05168   0.06038   0.06140   0.07543

 Mulliken charges:
               1
     1  C   -0.400914
     2  C   -0.357505
     3  C   -0.387550
     4  O   -0.404133
     5  O   -0.409704
     6  C   -0.093348
     7  O   -0.425826
     8  C   -0.399506
     9  C   -0.192900
    10  C    0.105104
    11  C   -0.138405
    12  C   -0.145756
    13  C   -0.302586
    14  H    0.204185
    15  H    0.175980
    16  H    0.237845
    17  H    0.244793
    18  H    0.171803
    19  H    0.176738
    20  H    0.150574
    21  H    0.200933
    22  H    0.163999
    23  H    0.181086
    24  H    0.198124
    25  H    0.183079
    26  H    0.266726
    27  H    0.212032
    28  H    0.144663
    29  H    0.265066
    30  H    0.202102
    31  H    0.173300
 Sum of Mulliken charges =  -0.00000

 Dipole moment (field-independent basis, Debye):
    X=              0.9305    Y=             -0.9351    Z=              3.8034  Tot=              4.0256
 Quadrupole moment (field-independent basis, Debye-Ang):
   XX=            -66.1272   YY=            -84.2323   ZZ=            -80.7844
   XY=              7.8537   XZ=              1.0551   YZ=              0.0412

  Exact polarizability: 189.183   2.880 172.545   1.181  -0.002 166.148
 Approx polarizability: 149.024   1.711 142.362   0.855  -0.443 141.293

 ******    1 imaginary frequencies (negative Signs) ******

                      1                      2                      3
                      A                      A                      A
 Frequencies --    -57.0807                66.4222                80.2020
 Red. masses --      3.6035                 3.7279                 3.7876
 Frc consts  --      0.0069                 0.0097                 0.0144
 IR Inten    --      3.5068                 0.4830                 2.0208

                      4                      5                      6
                      A                      A                      A
 Frequencies --    160.4117               207.5595               250.0642
 Red. masses --      2.7918                 3.5260                 2.2734
 Frc consts  --      0.0423                 0.0895                 0.0838
 IR Inten    --      2.3370                 3.1401                 5.8702

                      7                      8                      9
                      A                      A                      A
 Frequencies --    256.2634               269.3999               304.1259
 Red. masses --      2.1456                 3.0714                 3.6832
 Frc consts  --      0.0830                 0.1313                 0.2007
 IR Inten    --      9.0275                 2.6914                 0.8627

                     10                     11                     12
                      A                      A                      A
 Frequencies --    360.5602               385.2626               432.4332
 Red. masses --      2.0552                 2.7214                 3.4228
 Frc consts  --      0.1574                 0.2380                 0.3771
 IR Inten    --      3.0409                22.8957                 3.9862

                     13                     14                     15
                      A                      A                      A
 Frequencies --    450.9764               470.6680               480.7678
 Red. masses --      3.5216                 2.9331                 2.6902
 Frc consts  --      0.4220                 0.3828                 0.3664
 IR Inten    --      3.4706                 2.1097                 0.5651

                     16                     17                     18
                      A                      A                      A
 Frequencies --    525.7888               553.4061               603.4085
 Red. masses --      2.3394                 2.2035                 2.5834
 Frc consts  --      0.3810                 0.3976                 0.5542
 IR Inten    --      2.9275                12.0551                 3.6413

                     19                     20                     21
                      A                      A                      A
 Frequencies --    644.0104               825.6372               832.0676
 Red. masses --      3.0121                 2.1524                 1.8234
 Frc consts  --      0.7361                 0.8645                 0.7438
 IR Inten    --      8.6584                 2.6300                12.3071

                     22                     23                     24
                      A                      A                      A
 Frequencies --    863.2832               877.3064               882.5605
 Red. masses --      1.9465                 1.4187                 1.9423
 Frc consts  --      0.8547                 0.6434                 0.8913
 IR Inten    --     17.1653                15.4973                10.3911

                     25                     26                     27
                      A                      A                      A
 Frequencies --    899.0658               928.5864               940.0540
 Red. masses --      2.4094                 2.4685                 2.1879
 Frc consts  --      1.1475                 1.2541                 1.1392
 IR Inten    --     20.4849                45.3360                57.5293

                     28                     29                     30
                      A                      A                      A
 Frequencies --    958.5984               984.2825               997.7551
 Red. masses --      2.1863                 1.5525                 1.8825
 Frc consts  --      1.1837                 0.8862                 1.1042
 IR Inten    --     15.5637                17.1127                35.7247

                     31                     32                     33
                      A                      A                      A
 Frequencies --   1004.9983              1049.1650              1055.8282
 Red. masses --      2.0284                 1.8878                 1.5641
 Frc consts  --      1.2071                 1.2243                 1.0273
 IR Inten    --     16.5517                30.1327               117.4548

                     34                     35                     36
                      A                      A                      A
 Frequencies --   1069.0243              1095.6420              1115.2590
 Red. masses --      2.6832                 2.3322                 4.0528
 Frc consts  --      1.8067                 1.6495                 2.9700
 IR Inten    --     16.9493                53.7751               310.2240

                     37                     38                     39
                      A                      A                      A
 Frequencies --   1141.1913              1154.1238              1174.4133
 Red. masses --      2.7481                 3.1334                 2.1888
 Frc consts  --      2.1086                 2.4590                 1.7786
 IR Inten    --    103.9406               113.8889                22.4306

                     40                     41                     42
                      A                      A                      A
 Frequencies --   1186.2462              1204.1038              1213.8912
 Red. masses --      2.3638                 1.5115                 1.4881
 Frc consts  --      1.9598                 1.2912                 1.2919
 IR Inten    --     17.6425                21.2178               100.0166

                     43                     44                     45
                      A                      A                      A
 Frequencies --   1217.7476              1238.2593              1246.3120
 Red. masses --      3.0818                 1.6679                 1.5379
 Frc consts  --      2.6926                 1.5068                 1.4075
 IR Inten    --    205.9042                38.1862                13.1257

                     46                     47                     48
                      A                      A                      A
 Frequencies --   1279.6908              1304.2147              1314.7512
 Red. masses --      1.2285                 1.1529                 1.1937
 Frc consts  --      1.1853                 1.1554                 1.2157
 IR Inten    --      4.2520                25.7751                29.8498

                     49                     50                     51
                      A                      A                      A
 Frequencies --   1340.2487              1345.1064              1354.4776
 Red. masses --      1.3254                 1.2607                 1.3414
 Frc consts  --      1.4027                 1.3439                 1.4500
 IR Inten    --      6.7531                 6.9196                 4.3844

                     52                     53                     54
                      A                      A                      A
 Frequencies --   1365.9262              1367.7251              1383.1980
 Red. masses --      1.3143                 1.2957                 1.3961
 Frc consts  --      1.4448                 1.4281                 1.5737
 IR Inten    --      5.3736                 1.1397                 9.2759

                     55                     56                     57
                      A                      A                      A
 Frequencies --   1385.4934              1390.9718              1400.8855
 Red. masses --      1.4864                 1.3209                 1.5089
 Frc consts  --      1.6811                 1.5057                 1.7446
 IR Inten    --      6.2098                24.7872                22.4520

                     58                     59                     60
                      A                      A                      A
 Frequencies --   1413.6662              1420.0533              1434.0027
 Red. masses --      1.3685                 1.3355                 1.4043
 Frc consts  --      1.6113                 1.5867                 1.7014
 IR Inten    --     11.0639                 8.6179                 1.0874

                     61                     62                     63
                      A                      A                      A
 Frequencies --   1445.4353              1470.5570              1471.4165
 Red. masses --      1.4662                 1.0965                 1.1204
 Frc consts  --      1.8049                 1.3971                 1.4292
 IR Inten    --     59.4965                 8.6636                 3.2542

                     64                     65                     66
                      A                      A                      A
 Frequencies --   1473.2242              1487.9656              1490.0180
 Red. masses --      1.1005                 1.1205                 1.1235
 Frc consts  --      1.4072                 1.4617                 1.4697
 IR Inten    --     11.1497                11.2711                25.2388

                     67                     68                     69
                      A                      A                      A
 Frequencies --   1501.0746              1505.5815              1513.4650
 Red. masses --      1.0841                 1.0952                 1.0954
 Frc consts  --      1.4393                 1.4627                 1.4783
 IR Inten    --      2.6746                 5.7619                 8.3503

                     70                     71                     72
                      A                      A                      A
 Frequencies --   3030.8519              3037.9126              3041.1758
 Red. masses --      1.0706                 1.0696                 1.0749
 Frc consts  --      5.7944                 5.8161                 5.8575
 IR Inten    --     66.2769                74.3776                14.9603

                     73                     74                     75
                      A                      A                      A
 Frequencies --   3057.0059              3057.1086              3060.6964
 Red. masses --      1.0674                 1.0756                 1.0688
 Frc consts  --      5.8770                 5.9226                 5.8991
 IR Inten    --     19.3097                45.6723                27.4984

                     76                     77                     78
                      A                      A                      A
 Frequencies --   3069.2151              3070.6415              3073.3266
 Red. masses --      1.0619                 1.0794                 1.0621
 Frc consts  --      5.8934                 5.9966                 5.9104
 IR Inten    --     41.9863                76.8272                66.3342

                     79                     80                     81
                      A                      A                      A
 Frequencies --   3073.8818              3117.2172              3118.9839
 Red. masses --      1.0627                 1.0997                 1.0974
 Frc consts  --      5.9162                 6.2960                 6.2898
 IR Inten    --     51.2439                44.6074                39.5542

                     82                     83                     84
                      A                      A                      A
 Frequencies --   3122.1475              3124.3127              3129.1398
 Red. masses --      1.1009                 1.1028                 1.1040
 Frc consts  --      6.3226                 6.3426                 6.3688
 IR Inten    --     57.6058                54.2291                53.4080

                     85                     86                     87
                      A                      A                      A
 Frequencies --   3139.6949              3140.1245              3154.0943
 Red. masses --      1.0968                 1.0954                 1.0979
 Frc consts  --      6.3700                 6.3636                 6.4354
 IR Inten    --     43.5953                41.1964                22.3575

 - Thermochemistry -
 -------------------
 Temperature   298.150 Kelvin.  Pressure   1.00000 Atm.
 Atom     1 has atomic number  6 and mass  12.00000

 Molecular mass:   186.12559 amu.
 Principal axes and moments of inertia in atomic units:
                           1         2         3
     Eigenvalues --   893.552344577.419405073.48018
           X            0.99996   0.00823   0.00258
           Y           -0.00823   0.99996  -0.00194
           Z           -0.00259   0.00192   0.99999
 This molecule is an asymmetric top.
 Rotational symmetry number  1.
 Warning -- assumption of classical behavior for rotation
           may cause significant error
 Rotational temperatures (Kelvin)      0.09693     0.01892     0.01707
 Rotational constants (GHZ):           2.01974     0.39427     0.35572
    1 imaginary frequencies ignored.
 Zero-point vibrational energy     736503.8 (Joules/Mol)
                                  176.02862 (Kcal/Mol)
 Warning -- explicit consideration of  17 degrees of freedom as
           vibrations may cause significant error
 Vibrational temperatures:     95.57   115.39   230.80   298.63   359.79
          (Kelvin)            368.71   387.61   437.57   518.77   554.31
                              622.17   648.85   677.19   691.72   756.49
                              796.23   868.17   926.59  1187.91  1197.16
                             1242.07  1262.25  1269.81  1293.56  1336.03
                             1352.53  1379.21  1416.16  1435.55  1445.97
                             1509.51  1519.10  1538.09  1576.38  1604.61
                             1641.92  1660.53  1689.72  1706.74  1732.44
                             1746.52  1752.07  1781.58  1793.17  1841.19
                             1876.47  1891.63  1928.32  1935.31  1948.79
                             1965.26  1967.85  1990.11  1993.42  2001.30
                             2015.56  2033.95  2043.14  2063.21  2079.66
                             2115.80  2117.04  2119.64  2140.85  2143.80
                             2159.71  2166.20  2177.54  4360.72  4370.88
                             4375.57  4398.35  4398.50  4403.66  4415.92
                             4417.97  4421.83  4422.63  4484.98  4487.52
                             4492.07  4495.19  4502.13  4517.32  4517.94
                             4538.04

 Zero-point correction=                           0.280519 (Hartree/Particle)
 Thermal correction to Energy=                    0.291422
 Thermal correction to Enthalpy=                  0.292366
 Thermal correction to Gibbs Free Energy=         0.243860
 Sum of electronic and zero-point Energies=           -617.221262
 Sum of electronic and thermal Energies=              -617.210359
 Sum of electronic and thermal Enthalpies=            -617.209415
 Sum of electronic and thermal Free Energies=         -617.257922

                     E (Thermal)             CV                S
                      KCal/Mol        Cal/Mol-Kelvin    Cal/Mol-Kelvin
 Total                  182.870             44.919            102.090
 Electronic               0.000              0.000              0.000
 Translational            0.889              2.981             41.570
 Rotational               0.889              2.981             31.407
 Vibrational            181.092             38.958             29.114
 Vibration     1          0.598              1.970              4.257
 Vibration     2          0.600              1.963              3.886
 Vibration     3          0.622              1.891              2.545
 Vibration     4          0.641              1.829              2.065
 Vibration     5          0.663              1.763              1.730
 Vibration     6          0.666              1.752              1.687
 Vibration     7          0.674              1.729              1.600
 Vibration     8          0.695              1.666              1.394
 Vibration     9          0.735              1.554              1.120
 Vibration    10          0.754              1.502              1.018
 Vibration    11          0.793              1.400              0.851
 Vibration    12          0.810              1.359              0.793
 Vibration    13          0.828              1.315              0.736
 Vibration    14          0.837              1.293              0.708
 Vibration    15          0.881              1.193              0.597
 Vibration    16          0.909              1.132              0.537
 Vibration    17          0.962              1.025              0.444

 Optimization completed.
    -- Stationary point found.
 Normal termination of Gaussian 16 at Sun Mar 10 03:37:41 2019.
