 Gaussian 16, Revision B.01,
 Gaussian 16:  ES64L-G16RevB.01 20-Dec-2017

 ----------------------------------------------------------------------
 #M062X/6-311++G(2d,2p) opt=ModRedundant freq=noraman SCRF=(SMD,solvent
 =water)
 ----------------------------------------------------------------------

 -------------------------------
 4c1_b1_4e_4c1_PSI.inp_extract_2
 -------------------------------
 Symbolic Z-matrix:
 Charge =  0 Multiplicity = 1

 SCF Done:  E(RM062X) =  -617.506477272     A.U. after   12 cycles
 SCF Done:  E(RM062X) =  -617.508009434     A.U. after   10 cycles
 SCF Done:  E(RM062X) =  -617.508112482     A.U. after    9 cycles
 SCF Done:  E(RM062X) =  -617.508122040     A.U. after    8 cycles
 SCF Done:  E(RM062X) =  -617.508122837     A.U. after    7 cycles
 Optimization completed.
    -- Stationary point found.
 Normal termination of Gaussian 16 at Sun Mar 10 02:31:50 2019.

 ----------------------------------------------------------------------
 #N Geom=AllCheck Guess=TCheck SCRF=Check GenChk RM062X/6-311++G(2d,2p)
  Freq
 ----------------------------------------------------------------------

 Structure from the checkpoint file:  "4c1_b1_4e_4c1_PSI.inp_extract_2.chk"
 -------------------------------
 4c1_b1_4e_4c1_PSI.inp_extract_2
 -------------------------------
 Charge =  0 Multiplicity = 1

                         Standard orientation:
 ---------------------------------------------------------------------
 Center     Atomic      Atomic             Coordinates (Angstroms)
 Number     Number       Type             X           Y           Z
 ---------------------------------------------------------------------
      1          6           0       -3.637701   -0.928548   -0.032916
      2          6           0        1.984880   -1.244954   -0.328788
      3          6           0        3.254878    1.257233    0.215218
      4          8           0        3.184508   -0.858386   -0.981898
      5          8           0       -1.540859    1.025735   -0.032155
      6          6           0       -2.733477    1.269208   -0.782385
      7          8           0       -0.024951   -0.487001    0.717069
      8          6           0       -3.922379    0.566970   -0.151403
      9          6           0        1.924744    0.931206    0.894005
     10          6           0       -1.216452   -0.357526   -0.000563
     11          6           0        3.986458   -0.023309   -0.145770
     12          6           0        1.138583   -0.029394    0.021711
     13          6           0       -2.305514   -1.154070    0.682628
     14          1           0       -4.440707   -1.436621    0.499194
     15          1           0       -3.585452   -1.364507   -1.034093
     16          1           0        2.219184   -1.795163    0.590338
     17          1           0        1.444681   -1.903767   -1.007157
     18          1           0        3.077166    1.832234   -0.696206
     19          1           0        3.884489    1.859944    0.869746
     20          1           0       -2.586721    0.918516   -1.810144
     21          1           0       -2.862969    2.348833   -0.801229
     22          1           0       -4.099878    0.992493    0.838860
     23          1           0       -4.809851    0.750138   -0.757750
     24          1           0        2.110851    0.447301    1.856943
     25          1           0        1.338991    1.832011    1.077288
     26          1           0       -1.074775   -0.698906   -1.035431
     27          1           0        4.896442    0.182016   -0.705417
     28          1           0        4.249669   -0.578780    0.761461
     29          1           0        0.840457    0.474916   -0.900536
     30          1           0       -2.367788   -0.816621    1.719862
     31          1           0       -2.027490   -2.207713    0.679729
 ---------------------------------------------------------------------

 SCF Done:  E(RM062X) =  -617.508122837     A.U. after    1 cycles

 The electronic state is 1-A.
 Alpha  occ. eigenvalues --  -19.63792 -19.63136 -19.63008 -10.63375 -10.58295
 Alpha  occ. eigenvalues --  -10.57510 -10.57476 -10.57421 -10.52570 -10.52557
 Alpha  occ. eigenvalues --  -10.52502 -10.52485 -10.52250  -1.20188  -1.16339
 Alpha  occ. eigenvalues --   -1.13689  -0.90648  -0.89478  -0.86774  -0.83612
 Alpha  occ. eigenvalues --   -0.74254  -0.73603  -0.72420  -0.69819  -0.66062
 Alpha  occ. eigenvalues --   -0.64263  -0.59805  -0.57826  -0.57032  -0.55242
 Alpha  occ. eigenvalues --   -0.54519  -0.52519  -0.51561  -0.50591  -0.50045
 Alpha  occ. eigenvalues --   -0.47935  -0.46087  -0.45659  -0.45482  -0.44196
 Alpha  occ. eigenvalues --   -0.43340  -0.40314  -0.40227  -0.39954  -0.39166
 Alpha  occ. eigenvalues --   -0.38780  -0.37966  -0.37190  -0.35648  -0.32674
 Alpha  occ. eigenvalues --   -0.31864
 Alpha virt. eigenvalues --    0.00510   0.01286   0.01346   0.01473   0.02582
 Alpha virt. eigenvalues --    0.02852   0.03047   0.04058   0.04221   0.04703
 Alpha virt. eigenvalues --    0.04818   0.05177   0.05956   0.06121   0.07040

 Mulliken charges:
               1
     1  C   -0.420696
     2  C   -0.326166
     3  C   -0.361052
     4  O   -0.374515
     5  O   -0.414287
     6  C   -0.141604
     7  O   -0.341388
     8  C   -0.329816
     9  C   -0.258939
    10  C   -0.075263
    11  C   -0.160861
    12  C   -0.059602
    13  C   -0.223806
    14  H    0.201577
    15  H    0.176528
    16  H    0.207407
    17  H    0.201421
    18  H    0.163606
    19  H    0.190177
    20  H    0.151711
    21  H    0.203363
    22  H    0.159717
    23  H    0.181234
    24  H    0.204755
    25  H    0.171373
    26  H    0.252065
    27  H    0.216551
    28  H    0.152326
    29  H    0.277272
    30  H    0.197744
    31  H    0.179165
 Sum of Mulliken charges =  -0.00000

 Dipole moment (field-independent basis, Debye):
    X=             -1.9709    Y=              0.1804    Z=             -0.7402  Tot=              2.1130
 Quadrupole moment (field-independent basis, Debye-Ang):
   XX=            -67.7290   YY=            -79.8002   ZZ=            -82.5291
   XY=              5.7640   XZ=              9.4470   YZ=             -1.9565

  Exact polarizability: 187.565   1.156 172.496   1.855  -1.193 168.602
 Approx polarizability: 147.756   0.617 141.974   1.500  -0.624 142.779

 ******    1 imaginary frequencies (negative Signs) ******

                      1                      2                      3
                      A                      A                      A
 Frequencies --    -22.1675                56.3851                72.9148
 Red. masses --      3.8894                 3.7169                 3.6298
 Frc consts  --      0.0011                 0.0070                 0.0114
 IR Inten    --      3.9092                 1.0288                 2.9931

                      4                      5                      6
                      A                      A                      A
 Frequencies --    146.4501               197.1133               245.2807
 Red. masses --      2.9844                 3.1795                 2.4552
 Frc consts  --      0.0377                 0.0728                 0.0870
 IR Inten    --      1.1788                 0.5762                 6.7603

                      7                      8                      9
                      A                      A                      A
 Frequencies --    248.3702               280.7518               328.5924
 Red. masses --      2.0436                 3.2583                 2.7624
 Frc consts  --      0.0743                 0.1513                 0.1757
 IR Inten    --      7.2889                 1.9106                19.0577

                     10                     11                     12
                      A                      A                      A
 Frequencies --    356.3500               391.6890               434.9075
 Red. masses --      2.2113                 2.8887                 2.4314
 Frc consts  --      0.1654                 0.2611                 0.2710
 IR Inten    --      8.4194                 5.2818                10.0165

                     13                     14                     15
                      A                      A                      A
 Frequencies --    442.3022               464.2904               493.8210
 Red. masses --      4.0220                 3.2470                 3.3462
 Frc consts  --      0.4636                 0.4124                 0.4808
 IR Inten    --      1.2221                 1.7262                 2.8773

                     16                     17                     18
                      A                      A                      A
 Frequencies --    519.0760               545.3541               595.7489
 Red. masses --      2.7177                 2.1774                 2.0462
 Frc consts  --      0.4314                 0.3815                 0.4279
 IR Inten    --      1.7128                14.5376                 9.1257

                     19                     20                     21
                      A                      A                      A
 Frequencies --    652.0904               831.2790               834.6694
 Red. masses --      3.0488                 2.0250                 1.9421
 Frc consts  --      0.7638                 0.8245                 0.7972
 IR Inten    --      1.1537                11.7014                 1.1367

                     22                     23                     24
                      A                      A                      A
 Frequencies --    862.8257               876.4799               884.0705
 Red. masses --      1.9333                 1.4039                 1.8493
 Frc consts  --      0.8480                 0.6354                 0.8516
 IR Inten    --     10.1566                12.1225                11.5253

                     25                     26                     27
                      A                      A                      A
 Frequencies --    898.8962               930.8410               942.2120
 Red. masses --      2.3028                 2.3910                 2.2537
 Frc consts  --      1.0963                 1.2206                 1.1788
 IR Inten    --     14.2889                66.0205                48.8414

                     28                     29                     30
                      A                      A                      A
 Frequencies --    959.4027               985.6825               994.9542
 Red. masses --      2.0767                 2.0763                 1.3770
 Frc consts  --      1.1262                 1.1885                 0.8032
 IR Inten    --     11.0202                53.9134                 0.3084

                     31                     32                     33
                      A                      A                      A
 Frequencies --   1009.7585              1053.1646              1056.0366
 Red. masses --      2.1644                 1.6942                 1.5410
 Frc consts  --      1.3002                 1.1071                 1.0125
 IR Inten    --     15.6381                29.4245                89.3246

                     34                     35                     36
                      A                      A                      A
 Frequencies --   1095.2479              1097.8429              1119.7931
 Red. masses --      2.5428                 3.3843                 4.2161
 Frc consts  --      1.7972                 2.4033                 3.1149
 IR Inten    --     83.3799                61.6625               282.1934

                     37                     38                     39
                      A                      A                      A
 Frequencies --   1154.3834              1155.2794              1170.6579
 Red. masses --      2.9618                 2.3647                 2.4306
 Frc consts  --      2.3255                 1.8595                 1.9626
 IR Inten    --    137.0641                 7.6775                43.1360

                     40                     41                     42
                      A                      A                      A
 Frequencies --   1183.4567              1203.1052              1208.6039
 Red. masses --      2.1207                 1.5300                 1.7232
 Frc consts  --      1.7500                 1.3048                 1.4830
 IR Inten    --     11.8825                10.8145               204.7688

                     43                     44                     45
                      A                      A                      A
 Frequencies --   1226.3783              1238.8902              1249.9514
 Red. masses --      2.4919                 1.6611                 1.5946
 Frc consts  --      2.2081                 1.5022                 1.4679
 IR Inten    --     52.0074                49.4870                96.6889

                     46                     47                     48
                      A                      A                      A
 Frequencies --   1278.7835              1303.6267              1314.6846
 Red. masses --      1.2311                 1.2031                 1.1929
 Frc consts  --      1.1861                 1.2046                 1.2148
 IR Inten    --      5.7228                23.2366                31.0927

                     49                     50                     51
                      A                      A                      A
 Frequencies --   1330.1822              1342.5132              1347.5527
 Red. masses --      1.3175                 1.2769                 1.2809
 Frc consts  --      1.3735                 1.3559                 1.3704
 IR Inten    --     10.2674                 4.3940                 5.1077

                     52                     53                     54
                      A                      A                      A
 Frequencies --   1362.5605              1367.1511              1380.7645
 Red. masses --      1.2833                 1.4439                 1.4423
 Frc consts  --      1.4038                 1.5900                 1.6201
 IR Inten    --     14.4715                 3.9605                 5.8589

                     55                     56                     57
                      A                      A                      A
 Frequencies --   1384.5170              1396.1745              1398.2678
 Red. masses --      1.5067                 1.3351                 1.3490
 Frc consts  --      1.7016                 1.5334                 1.5540
 IR Inten    --      3.4191                40.5625                 7.8213

                     58                     59                     60
                      A                      A                      A
 Frequencies --   1414.8701              1422.0598              1429.9824
 Red. masses --      1.4383                 1.3226                 1.4763
 Frc consts  --      1.6964                 1.5759                 1.7786
 IR Inten    --     32.1587                 6.5064                35.1873

                     61                     62                     63
                      A                      A                      A
 Frequencies --   1451.4973              1470.8623              1472.7224
 Red. masses --      1.4184                 1.1190                 1.0934
 Frc consts  --      1.7606                 1.4264                 1.3972
 IR Inten    --     21.2744                 4.0800                 7.5834

                     64                     65                     66
                      A                      A                      A
 Frequencies --   1473.7860              1487.6860              1491.6303
 Red. masses --      1.1179                 1.1293                 1.1303
 Frc consts  --      1.4307                 1.4726                 1.4817
 IR Inten    --     13.9394                16.0109                24.3617

                     67                     68                     69
                      A                      A                      A
 Frequencies --   1498.1394              1504.9701              1505.3709
 Red. masses --      1.0875                 1.0960                 1.1028
 Frc consts  --      1.4381                 1.4626                 1.4724
 IR Inten    --      1.3823                 3.1941                11.4984

                     70                     71                     72
                      A                      A                      A
 Frequencies --   3013.7948              3032.0565              3036.4310
 Red. masses --      1.0828                 1.0678                 1.0698
 Frc consts  --      5.7948                 5.7837                 5.8113
 IR Inten    --     71.0650                51.8920                79.0966

                     73                     74                     75
                      A                      A                      A
 Frequencies --   3039.2187              3060.0392              3061.1629
 Red. masses --      1.0700                 1.0659                 1.0687
 Frc consts  --      5.8229                 5.8808                 5.9001
 IR Inten    --     70.3379                18.0595                20.7833

                     76                     77                     78
                      A                      A                      A
 Frequencies --   3069.1374              3072.3887              3073.0796
 Red. masses --      1.0618                 1.0627                 1.0617
 Frc consts  --      5.8931                 5.9101                 5.9074
 IR Inten    --     43.5421                31.6664                44.7087

                     79                     80                     81
                      A                      A                      A
 Frequencies --   3079.3518              3119.2683              3119.6055
 Red. masses --      1.0822                 1.0991                 1.0974
 Frc consts  --      6.0464                 6.3006                 6.2921
 IR Inten    --     58.7381                39.4069                39.6127

                     82                     83                     84
                      A                      A                      A
 Frequencies --   3122.7260              3124.0860              3130.3785
 Red. masses --      1.1010                 1.1033                 1.1033
 Frc consts  --      6.3258                 6.3441                 6.3701
 IR Inten    --     58.6882                57.0120                50.6394

                     85                     86                     87
                      A                      A                      A
 Frequencies --   3131.5272              3140.5786              3142.4289
 Red. masses --      1.0979                 1.0965                 1.0962
 Frc consts  --      6.3432                 6.3720                 6.3779
 IR Inten    --     37.5213                42.4339                40.5217

 - Thermochemistry -
 -------------------
 Temperature   298.150 Kelvin.  Pressure   1.00000 Atm.
 Atom     1 has atomic number  6 and mass  12.00000

 Molecular mass:   186.12559 amu.
 Principal axes and moments of inertia in atomic units:
                           1         2         3
     Eigenvalues --   843.118514960.246175312.31576
           X            0.99993   0.00872   0.00763
           Y           -0.00859   0.99982  -0.01691
           Z           -0.00778   0.01685   0.99983
 This molecule is an asymmetric top.
 Rotational symmetry number  1.
 Warning -- assumption of classical behavior for rotation
           may cause significant error
 Rotational temperatures (Kelvin)      0.10273     0.01746     0.01630
 Rotational constants (GHZ):           2.14055     0.36384     0.33973
    1 imaginary frequencies ignored.
 Zero-point vibrational energy     736259.4 (Joules/Mol)
                                  175.97023 (Kcal/Mol)
 Warning -- explicit consideration of  17 degrees of freedom as
           vibrations may cause significant error
 Vibrational temperatures:     81.13   104.91   210.71   283.60   352.90
          (Kelvin)            357.35   403.94   472.77   512.71   563.55
                              625.73   636.37   668.01   710.50   746.83
                              784.64   857.15   938.21  1196.03  1200.90
                             1241.41  1261.06  1271.98  1293.31  1339.27
                             1355.63  1380.37  1418.18  1431.52  1452.82
                             1515.27  1519.40  1575.82  1579.55  1611.13
                             1660.90  1662.19  1684.32  1702.73  1731.00
                             1738.91  1764.48  1782.49  1798.40  1839.88
                             1875.63  1891.54  1913.84  1931.58  1938.83
                             1960.42  1967.03  1986.61  1992.01  2008.78
                             2011.80  2035.68  2046.03  2057.43  2088.38
                             2116.24  2118.92  2120.45  2140.45  2146.12
                             2155.49  2165.32  2165.89  4336.18  4362.45
                             4368.75  4372.76  4402.71  4404.33  4415.80
                             4420.48  4421.48  4430.50  4487.93  4488.42
                             4492.91  4494.86  4503.92  4505.57  4518.59
                             4521.25

 Zero-point correction=                           0.280426 (Hartree/Particle)
 Thermal correction to Energy=                    0.291379
 Thermal correction to Enthalpy=                  0.292323
 Thermal correction to Gibbs Free Energy=         0.243462
 Sum of electronic and zero-point Energies=           -617.227696
 Sum of electronic and thermal Energies=              -617.216744
 Sum of electronic and thermal Enthalpies=            -617.215800
 Sum of electronic and thermal Free Energies=         -617.264661

                     E (Thermal)             CV                S
                      KCal/Mol        Cal/Mol-Kelvin    Cal/Mol-Kelvin
 Total                  182.843             44.884            102.837
 Electronic               0.000              0.000              0.000
 Translational            0.889              2.981             41.570
 Rotational               0.889              2.981             31.475
 Vibrational            181.065             38.922             29.792
 Vibration     1          0.596              1.975              4.580
 Vibration     2          0.599              1.967              4.073
 Vibration     3          0.617              1.907              2.718
 Vibration     4          0.636              1.844              2.160
 Vibration     5          0.660              1.771              1.764
 Vibration     6          0.662              1.765              1.742
 Vibration     7          0.680              1.709              1.529
 Vibration     8          0.712              1.618              1.267
 Vibration     9          0.732              1.562              1.138
 Vibration    10          0.759              1.488              0.994
 Vibration    11          0.796              1.394              0.843
 Vibration    12          0.802              1.378              0.819
 Vibration    13          0.822              1.329              0.754
 Vibration    14          0.849              1.264              0.674
 Vibration    15          0.874              1.208              0.612
 Vibration    16          0.901              1.150              0.554
 Vibration    17          0.954              1.041              0.457

 Optimization completed.
    -- Stationary point found.
 Normal termination of Gaussian 16 at Sun Mar 10 03:34:04 2019.
