 Gaussian 16, Revision B.01,
 Gaussian 16:  ES64L-G16RevB.01 20-Dec-2017

 ----------------------------------------------------------------------
 #M062X/6-311++G(2d,2p) opt=ModRedundant freq=noraman SCRF=(SMD,solvent
 =water)
 ----------------------------------------------------------------------

 --------------------------------
 4c1_b1_4e_4c1_PSI.inp_extract_18
 --------------------------------
 Symbolic Z-matrix:
 Charge =  0 Multiplicity = 1

 SCF Done:  E(RM062X) =  -617.500875849     A.U. after   12 cycles
 SCF Done:  E(RM062X) =  -617.502376897     A.U. after   10 cycles
 SCF Done:  E(RM062X) =  -617.502623069     A.U. after   10 cycles
 SCF Done:  E(RM062X) =  -617.502758798     A.U. after    9 cycles
 SCF Done:  E(RM062X) =  -617.502766326     A.U. after    8 cycles
 SCF Done:  E(RM062X) =  -617.502766926     A.U. after    8 cycles
 Optimization completed.
    -- Stationary point found.
 Normal termination of Gaussian 16 at Sun Mar 10 04:15:45 2019.

 ----------------------------------------------------------------------
 #N Geom=AllCheck Guess=TCheck SCRF=Check GenChk RM062X/6-311++G(2d,2p)
  Freq
 ----------------------------------------------------------------------

 Structure from the checkpoint file:  "4c1_b1_4e_4c1_PSI.inp_extract_18.chk"
 --------------------------------
 4c1_b1_4e_4c1_PSI.inp_extract_18
 --------------------------------
 Charge =  0 Multiplicity = 1

                         Standard orientation:
 ---------------------------------------------------------------------
 Center     Atomic      Atomic             Coordinates (Angstroms)
 Number     Number       Type             X           Y           Z
 ---------------------------------------------------------------------
      1          6           0        3.637612   -0.384650    0.583595
      2          6           0       -2.103862   -0.946688   -0.878466
      3          6           0       -2.889161    1.039096    0.992314
      4          8           0       -3.470991   -0.652478   -0.647243
      5          8           0        1.286402    0.554781   -0.756945
      6          6           0        2.382033    1.447921   -0.545734
      7          8           0        0.054088   -1.181429    0.038349
      8          6           0        3.696539    0.689514   -0.499936
      9          6           0       -1.399545    0.726443    0.828521
     10          6           0        1.161657   -0.378108    0.310615
     11          6           0       -3.648819    0.715130   -0.280074
     12          6           0       -1.265575   -0.720305    0.373827
     13          6           0        2.394350   -1.254371    0.395848
     14          1           0        4.534736   -1.002186    0.568268
     15          1           0        3.592749    0.096898    1.564090
     16          1           0       -1.713011   -0.314508   -1.685184
     17          1           0       -2.046524   -1.988983   -1.186755
     18          1           0       -3.305289    0.451133    1.813134
     19          1           0       -3.026698    2.092376    1.236399
     20          1           0        2.223407    1.992100    0.392580
     21          1           0        2.354116    2.160893   -1.366656
     22          1           0        3.871140    0.227239   -1.474128
     23          1           0        4.510115    1.390857   -0.312497
     24          1           0       -0.965981    1.389303    0.077461
     25          1           0       -0.881879    0.894421    1.771506
     26          1           0        1.031404    0.180486    1.242822
     27          1           0       -4.719407    0.860731   -0.153233
     28          1           0       -3.302134    1.351215   -1.102275
     29          1           0       -1.641686   -1.372028    1.167185
     30          1           0        2.464606   -1.827186   -0.531855
     31          1           0        2.272972   -1.953653    1.222791
 ---------------------------------------------------------------------

 SCF Done:  E(RM062X) =  -617.502766926     A.U. after    1 cycles

 The electronic state is 1-A.
 Alpha  occ. eigenvalues --  -19.63611 -19.63132 -19.62801 -10.63228 -10.58560
 Alpha  occ. eigenvalues --  -10.57467 -10.57446 -10.57405 -10.52734 -10.52648
 Alpha  occ. eigenvalues --  -10.52509 -10.52389 -10.52213  -1.19766  -1.16411
 Alpha  occ. eigenvalues --   -1.13468  -0.90536  -0.89414  -0.87058  -0.83598
 Alpha  occ. eigenvalues --   -0.74960  -0.73322  -0.72424  -0.69510  -0.65333
 Alpha  occ. eigenvalues --   -0.64912  -0.59475  -0.57611  -0.56215  -0.55642
 Alpha  occ. eigenvalues --   -0.54448  -0.52437  -0.52245  -0.50814  -0.49751
 Alpha  occ. eigenvalues --   -0.47945  -0.46056  -0.45634  -0.45359  -0.44545
 Alpha  occ. eigenvalues --   -0.43503  -0.40744  -0.40091  -0.39929  -0.39224
 Alpha  occ. eigenvalues --   -0.38493  -0.37388  -0.36642  -0.35394  -0.32398
 Alpha  occ. eigenvalues --   -0.32132
 Alpha virt. eigenvalues --    0.00443   0.01260   0.01355   0.01472   0.02639
 Alpha virt. eigenvalues --    0.02898   0.03049   0.03815   0.04077   0.04810
 Alpha virt. eigenvalues --    0.05141   0.05481   0.06027   0.06185   0.07227

 Mulliken charges:
               1
     1  C   -0.393788
     2  C   -0.222636
     3  C   -0.518985
     4  O   -0.404126
     5  O   -0.400131
     6  C   -0.109535
     7  O   -0.413771
     8  C   -0.404182
     9  C   -0.210133
    10  C    0.093549
    11  C   -0.198169
    12  C   -0.043169
    13  C   -0.292317
    14  H    0.202488
    15  H    0.173121
    16  H    0.195298
    17  H    0.208249
    18  H    0.183233
    19  H    0.172982
    20  H    0.160088
    21  H    0.199812
    22  H    0.162242
    23  H    0.181932
    24  H    0.252049
    25  H    0.176504
    26  H    0.254382
    27  H    0.217027
    28  H    0.153782
    29  H    0.251633
    30  H    0.194522
    31  H    0.178047
 Sum of Mulliken charges =  -0.00000

 Dipole moment (field-independent basis, Debye):
    X=              2.7577    Y=              3.4218    Z=              3.0806  Tot=              5.3669
 Quadrupole moment (field-independent basis, Debye-Ang):
   XX=            -76.8473   YY=            -79.1546   ZZ=            -79.5712
   XY=             -5.1199   XZ=             -1.9398   YZ=             -0.7906

  Exact polarizability: 185.976   0.362 174.118  -2.424   0.303 168.010
 Approx polarizability: 147.599   1.275 144.392  -1.861   0.238 140.920

 ******    1 imaginary frequencies (negative Signs) ******

                      1                      2                      3
                      A                      A                      A
 Frequencies --    -55.8123                65.1381                83.0501
 Red. masses --      3.9287                 3.6462                 3.6542
 Frc consts  --      0.0072                 0.0091                 0.0148
 IR Inten    --      0.7372                 2.9490                 0.8842

                      4                      5                      6
                      A                      A                      A
 Frequencies --    156.1684               195.1326               243.8635
 Red. masses --      2.8777                 3.1976                 2.2182
 Frc consts  --      0.0414                 0.0717                 0.0777
 IR Inten    --      3.9472                 1.3230                 6.0877

                      7                      8                      9
                      A                      A                      A
 Frequencies --    252.0676               279.8595               326.3149
 Red. masses --      2.2703                 3.4744                 2.9090
 Frc consts  --      0.0850                 0.1603                 0.1825
 IR Inten    --      7.8443                 3.2348                 4.0280

                     10                     11                     12
                      A                      A                      A
 Frequencies --    360.8110               378.4239               433.1951
 Red. masses --      2.3055                 2.5788                 3.3303
 Frc consts  --      0.1768                 0.2176                 0.3682
 IR Inten    --     13.7218                15.2456                 2.8952

                     13                     14                     15
                      A                      A                      A
 Frequencies --    450.9091               456.0138               483.5151
 Red. masses --      2.6980                 3.1398                 3.3956
 Frc consts  --      0.3232                 0.3847                 0.4677
 IR Inten    --      2.6983                 3.9176                 1.7100

                     16                     17                     18
                      A                      A                      A
 Frequencies --    525.8893               539.9268               601.3013
 Red. masses --      2.4847                 2.2957                 2.2067
 Frc consts  --      0.4049                 0.3943                 0.4701
 IR Inten    --      0.9567                 8.5240                 7.5119

                     19                     20                     21
                      A                      A                      A
 Frequencies --    645.2093               824.6204               833.2966
 Red. masses --      3.2060                 2.1203                 1.8080
 Frc consts  --      0.7864                 0.8495                 0.7397
 IR Inten    --      9.8535                 5.8983                12.4275

                     22                     23                     24
                      A                      A                      A
 Frequencies --    863.1441               878.1107               882.4740
 Red. masses --      1.9070                 1.5407                 1.7903
 Frc consts  --      0.8371                 0.7000                 0.8215
 IR Inten    --     15.4231                11.2658                14.7547

                     25                     26                     27
                      A                      A                      A
 Frequencies --    900.4005               927.9924               949.3699
 Red. masses --      2.2598                 2.4923                 2.1490
 Frc consts  --      1.0794                 1.2646                 1.1412
 IR Inten    --      9.9877                56.3062                54.3977

                     28                     29                     30
                      A                      A                      A
 Frequencies --    958.3310               982.3630              1002.7902
 Red. masses --      2.2085                 1.8120                 1.8600
 Frc consts  --      1.1950                 1.0303                 1.1020
 IR Inten    --      1.9799                39.9469                11.1187

                     31                     32                     33
                      A                      A                      A
 Frequencies --   1006.4121              1054.6214              1064.5490
 Red. masses --      1.8225                 1.5692                 1.8276
 Frc consts  --      1.0876                 1.0283                 1.2203
 IR Inten    --     10.0118               115.6232                14.8736

                     34                     35                     36
                      A                      A                      A
 Frequencies --   1073.2035              1094.8103              1114.2467
 Red. masses --      3.1640                 2.3529                 4.0780
 Frc consts  --      2.1471                 1.6616                 2.9830
 IR Inten    --     46.1564                41.8410               292.0656

                     37                     38                     39
                      A                      A                      A
 Frequencies --   1150.2741              1173.1605              1177.5973
 Red. masses --      2.3288                 2.3478                 2.0681
 Frc consts  --      1.8155                 1.9039                 1.6897
 IR Inten    --      2.3530                56.0351                59.9708

                     40                     41                     42
                      A                      A                      A
 Frequencies --   1186.5179              1199.6471              1204.9768
 Red. masses --      2.1920                 2.0447                 1.6301
 Frc consts  --      1.8182                 1.7337                 1.3945
 IR Inten    --     35.3095                89.3677                95.4496

                     43                     44                     45
                      A                      A                      A
 Frequencies --   1232.0423              1237.9229              1254.5421
 Red. masses --      2.4200                 1.6696                 1.6073
 Frc consts  --      2.1643                 1.5075                 1.4904
 IR Inten    --    264.2092                44.4889                26.2232

                     46                     47                     48
                      A                      A                      A
 Frequencies --   1279.5390              1301.6610              1314.9872
 Red. masses --      1.2337                 1.1680                 1.1939
 Frc consts  --      1.1901                 1.1659                 1.2164
 IR Inten    --      4.1535                14.8428                26.5439

                     49                     50                     51
                      A                      A                      A
 Frequencies --   1330.8991              1346.3557              1357.4834
 Red. masses --      1.2947                 1.2958                 1.3261
 Frc consts  --      1.3511                 1.3839                 1.4398
 IR Inten    --      9.3793                16.0043                 5.0626

                     52                     53                     54
                      A                      A                      A
 Frequencies --   1358.2867              1367.6362              1381.1782
 Red. masses --      1.1905                 1.4234                 1.4115
 Frc consts  --      1.2941                 1.5686                 1.5865
 IR Inten    --      2.7706                 0.1169                15.5068

                     55                     56                     57
                      A                      A                      A
 Frequencies --   1385.2087              1393.5035              1407.8666
 Red. masses --      1.4978                 1.2613                 1.4510
 Frc consts  --      1.6934                 1.4430                 1.6945
 IR Inten    --      6.6331                13.4437                15.7812

                     58                     59                     60
                      A                      A                      A
 Frequencies --   1416.4025              1420.0298              1432.7229
 Red. masses --      1.4216                 1.3684                 1.4431
 Frc consts  --      1.6803                 1.6258                 1.7453
 IR Inten    --      0.7853                11.9525                 5.9223

                     61                     62                     63
                      A                      A                      A
 Frequencies --   1445.8872              1471.9417              1473.4338
 Red. masses --      1.4680                 1.0944                 1.1202
 Frc consts  --      1.8082                 1.3970                 1.4328
 IR Inten    --     59.3107                11.1013                 2.7109

                     64                     65                     66
                      A                      A                      A
 Frequencies --   1474.1817              1489.2331              1491.1672
 Red. masses --      1.0969                 1.1192                 1.1325
 Frc consts  --      1.4045                 1.4624                 1.4837
 IR Inten    --     10.5714                13.6789                26.2822

                     67                     68                     69
                      A                      A                      A
 Frequencies --   1496.6081              1505.8891              1506.0945
 Red. masses --      1.0840                 1.1016                 1.1002
 Frc consts  --      1.4305                 1.4718                 1.4703
 IR Inten    --      1.4755                 7.7038                 5.3853

                     70                     71                     72
                      A                      A                      A
 Frequencies --   3029.7429              3032.8006              3036.1753
 Red. masses --      1.0688                 1.0703                 1.0697
 Frc consts  --      5.7802                 5.8004                 5.8098
 IR Inten    --     44.1671                67.1088                78.5760

                     73                     74                     75
                      A                      A                      A
 Frequencies --   3059.9640              3060.6627              3061.0227
 Red. masses --      1.0825                 1.0763                 1.0735
 Frc consts  --      5.9718                 5.9402                 5.9266
 IR Inten    --     36.2636                34.6676                62.2205

                     76                     77                     78
                      A                      A                      A
 Frequencies --   3069.5711              3072.4195              3072.8283
 Red. masses --      1.0619                 1.0639                 1.0635
 Frc consts  --      5.8948                 5.9170                 5.9167
 IR Inten    --     34.4241                51.0978                39.6228

                     79                     80                     81
                      A                      A                      A
 Frequencies --   3084.9839              3118.4266              3121.6797
 Red. masses --      1.0614                 1.0970                 1.1017
 Frc consts  --      5.9517                 6.2855                 6.3254
 IR Inten    --     42.3942                40.2944                60.9631

                     82                     83                     84
                      A                      A                      A
 Frequencies --   3124.8692              3129.2462              3137.0390
 Red. masses --      1.0998                 1.1034                 1.0983
 Frc consts  --      6.3272                 6.3662                 6.3683
 IR Inten    --     41.3508                48.6368                34.5236

                     85                     86                     87
                      A                      A                      A
 Frequencies --   3137.4448              3139.9681              3141.2846
 Red. masses --      1.1006                 1.0988                 1.0956
 Frc consts  --      6.3834                 6.3827                 6.3699
 IR Inten    --     50.6213                48.2289                36.9775

 - Thermochemistry -
 -------------------
 Temperature   298.150 Kelvin.  Pressure   1.00000 Atm.
 Atom     1 has atomic number  6 and mass  12.00000

 Molecular mass:   186.12559 amu.
 Principal axes and moments of inertia in atomic units:
                           1         2         3
     Eigenvalues --   897.387514625.234694902.32684
           X            0.99997  -0.00737  -0.00182
           Y            0.00737   0.99997   0.00392
           Z            0.00179  -0.00394   0.99999
 This molecule is an asymmetric top.
 Rotational symmetry number  1.
 Warning -- assumption of classical behavior for rotation
           may cause significant error
 Rotational temperatures (Kelvin)      0.09652     0.01873     0.01767
 Rotational constants (GHZ):           2.01111     0.39019     0.36814
    1 imaginary frequencies ignored.
 Zero-point vibrational energy     736795.2 (Joules/Mol)
                                  176.09827 (Kcal/Mol)
 Warning -- explicit consideration of  17 degrees of freedom as
           vibrations may cause significant error
 Vibrational temperatures:     93.72   119.49   224.69   280.75   350.87
          (Kelvin)            362.67   402.66   469.49   519.13   544.47
                              623.27   648.76   656.10   695.67   756.64
                              776.83   865.14   928.31  1186.44  1198.93
                             1241.87  1263.41  1269.68  1295.48  1335.17
                             1365.93  1378.82  1413.40  1442.79  1448.00
                             1517.36  1531.65  1544.10  1575.19  1603.15
                             1654.99  1687.92  1694.30  1707.13  1726.02
                             1733.69  1772.63  1781.10  1805.01  1840.97
                             1872.80  1891.97  1914.87  1937.11  1953.12
                             1954.27  1967.72  1987.21  1993.01  2004.94
                             2025.61  2037.89  2043.11  2061.37  2080.31
                             2117.80  2119.94  2121.02  2142.67  2145.46
                             2153.29  2166.64  2166.93  4359.12  4363.52
                             4368.38  4402.61  4403.61  4404.13  4416.43
                             4420.53  4421.11  4438.60  4486.72  4491.40
                             4495.99  4502.29  4513.50  4514.08  4517.71
                             4519.61

 Zero-point correction=                           0.280630 (Hartree/Particle)
 Thermal correction to Energy=                    0.291549
 Thermal correction to Enthalpy=                  0.292493
 Thermal correction to Gibbs Free Energy=         0.243950
 Sum of electronic and zero-point Energies=           -617.222136
 Sum of electronic and thermal Energies=              -617.211218
 Sum of electronic and thermal Enthalpies=            -617.210274
 Sum of electronic and thermal Free Energies=         -617.258817

                     E (Thermal)             CV                S
                      KCal/Mol        Cal/Mol-Kelvin    Cal/Mol-Kelvin
 Total                  182.949             44.909            102.167
 Electronic               0.000              0.000              0.000
 Translational            0.889              2.981             41.570
 Rotational               0.889              2.981             31.387
 Vibrational            181.172             38.948             29.210
 Vibration     1          0.597              1.971              4.295
 Vibration     2          0.600              1.961              3.817
 Vibration     3          0.620              1.896              2.596
 Vibration     4          0.636              1.847              2.179
 Vibration     5          0.659              1.773              1.775
 Vibration     6          0.664              1.759              1.716
 Vibration     7          0.680              1.711              1.535
 Vibration     8          0.710              1.623              1.278
 Vibration     9          0.735              1.553              1.119
 Vibration    10          0.749              1.516              1.045
 Vibration    11          0.794              1.398              0.848
 Vibration    12          0.810              1.359              0.793
 Vibration    13          0.814              1.348              0.778
 Vibration    14          0.840              1.287              0.701
 Vibration    15          0.881              1.193              0.596
 Vibration    16          0.895              1.162              0.565
 Vibration    17          0.960              1.029              0.447

 Optimization completed.
    -- Stationary point found.
 Normal termination of Gaussian 16 at Sun Mar 10 05:19:17 2019.
