 Gaussian 16, Revision B.01,
 Gaussian 16:  ES64L-G16RevB.01 20-Dec-2017

 ----------------------------------------------------------------------
 #M062X/6-311++G(2d,2p) opt=ModRedundant freq=noraman SCRF=(SMD,solvent
 =water)
 ----------------------------------------------------------------------

 --------------------------------
 4c1_b1_4e_4c1_PSI.inp_extract_17
 --------------------------------
 Symbolic Z-matrix:
 Charge =  0 Multiplicity = 1

 SCF Done:  E(RM062X) =  -617.501575671     A.U. after   12 cycles
 SCF Done:  E(RM062X) =  -617.503176357     A.U. after   10 cycles
 SCF Done:  E(RM062X) =  -617.503448432     A.U. after   10 cycles
 SCF Done:  E(RM062X) =  -617.503596033     A.U. after   10 cycles
 SCF Done:  E(RM062X) =  -617.503605388     A.U. after    8 cycles
 SCF Done:  E(RM062X) =  -617.503606181     A.U. after    8 cycles
 Optimization completed.
    -- Stationary point found.
 Normal termination of Gaussian 16 at Sun Mar 10 04:14:45 2019.

 ----------------------------------------------------------------------
 #N Geom=AllCheck Guess=TCheck SCRF=Check GenChk RM062X/6-311++G(2d,2p)
  Freq
 ----------------------------------------------------------------------

 Structure from the checkpoint file:  "4c1_b1_4e_4c1_PSI.inp_extract_17.chk"
 --------------------------------
 4c1_b1_4e_4c1_PSI.inp_extract_17
 --------------------------------
 Charge =  0 Multiplicity = 1

                         Standard orientation:
 ---------------------------------------------------------------------
 Center     Atomic      Atomic             Coordinates (Angstroms)
 Number     Number       Type             X           Y           Z
 ---------------------------------------------------------------------
      1          6           0        3.619269   -0.335296    0.545582
      2          6           0       -1.990234   -0.731412   -1.052165
      3          6           0       -2.908517    0.794766    1.160153
      4          8           0       -3.367494   -0.441817   -0.876443
      5          8           0        1.210093    0.566486   -0.713311
      6          6           0        2.261691    1.499655   -0.457290
      7          8           0        0.071089   -1.269395   -0.006879
      8          6           0        3.612274    0.805774   -0.469186
      9          6           0       -1.416719    0.468669    1.055231
     10          6           0        1.145110   -0.433242    0.298050
     11          6           0       -3.551496    0.808463   -0.213729
     12          6           0       -1.268529   -0.836867    0.287341
     13          6           0        2.418002   -1.253307    0.316289
     14          1           0        4.545354   -0.905177    0.482856
     15          1           0        3.563303    0.081409    1.554767
     16          1           0       -1.514508    0.052657   -1.653490
     17          1           0       -1.926578   -1.676234   -1.588718
     18          1           0       -3.410913    0.048679    1.779380
     19          1           0       -3.048060    1.766589    1.633454
     20          1           0        2.086547    1.977438    0.513734
     21          1           0        2.189222    2.258835   -1.232805
     22          1           0        3.797845    0.413826   -1.471764
     23          1           0        4.392934    1.533379   -0.245460
     24          1           0       -0.904832    1.272869    0.522711
     25          1           0       -0.981873    0.388241    2.050801
     26          1           0        1.003195    0.063511    1.262981
     27          1           0       -4.626090    0.965072   -0.149259
     28          1           0       -3.116682    1.604267   -0.829053
     29          1           0       -1.729749   -1.639929    0.866629
     30          1           0        2.504491   -1.764283   -0.645442
     31          1           0        2.341775   -2.006562    1.100091
 ---------------------------------------------------------------------

 SCF Done:  E(RM062X) =  -617.503606181     A.U. after    1 cycles

 The electronic state is 1-A.
 Alpha  occ. eigenvalues --  -19.63640 -19.63102 -19.62829 -10.63214 -10.58548
 Alpha  occ. eigenvalues --  -10.57454 -10.57405 -10.57393 -10.52787 -10.52656
 Alpha  occ. eigenvalues --  -10.52525 -10.52409 -10.52223  -1.19810  -1.16361
 Alpha  occ. eigenvalues --   -1.13464  -0.90536  -0.89418  -0.86992  -0.83644
 Alpha  occ. eigenvalues --   -0.74980  -0.73296  -0.72503  -0.69549  -0.65488
 Alpha  occ. eigenvalues --   -0.64737  -0.59454  -0.57419  -0.56310  -0.55714
 Alpha  occ. eigenvalues --   -0.54431  -0.52441  -0.52246  -0.50797  -0.49795
 Alpha  occ. eigenvalues --   -0.47977  -0.46068  -0.45601  -0.45255  -0.44482
 Alpha  occ. eigenvalues --   -0.43710  -0.40817  -0.40028  -0.39868  -0.39158
 Alpha  occ. eigenvalues --   -0.38397  -0.37418  -0.36563  -0.35868  -0.32491
 Alpha  occ. eigenvalues --   -0.31912
 Alpha virt. eigenvalues --    0.00427   0.01258   0.01352   0.01466   0.02646
 Alpha virt. eigenvalues --    0.02898   0.03073   0.03818   0.04070   0.04801
 Alpha virt. eigenvalues --    0.05187   0.05539   0.06047   0.06186   0.07229

 Mulliken charges:
               1
     1  C   -0.390644
     2  C   -0.246977
     3  C   -0.473255
     4  O   -0.404990
     5  O   -0.397806
     6  C   -0.104573
     7  O   -0.414223
     8  C   -0.397574
     9  C   -0.232273
    10  C    0.044885
    11  C   -0.196044
    12  C    0.020109
    13  C   -0.349616
    14  H    0.202640
    15  H    0.173595
    16  H    0.204985
    17  H    0.200293
    18  H    0.184451
    19  H    0.172332
    20  H    0.152378
    21  H    0.200396
    22  H    0.162588
    23  H    0.181335
    24  H    0.252267
    25  H    0.171604
    26  H    0.275342
    27  H    0.222282
    28  H    0.150885
    29  H    0.259714
    30  H    0.194803
    31  H    0.181092
 Sum of Mulliken charges =   0.00000

 Dipole moment (field-independent basis, Debye):
    X=              2.7015    Y=              3.1653    Z=              3.5850  Tot=              5.4926
 Quadrupole moment (field-independent basis, Debye-Ang):
   XX=            -76.7157   YY=            -78.9502   ZZ=            -80.0979
   XY=             -3.6558   XZ=             -3.9809   YZ=             -0.8488

  Exact polarizability: 185.645   0.535 173.838  -2.310   0.692 168.351
 Approx polarizability: 147.565   1.492 144.426  -1.540   0.738 140.838

 ******    1 imaginary frequencies (negative Signs) ******

                      1                      2                      3
                      A                      A                      A
 Frequencies --    -22.2078                69.8268                82.7362
 Red. masses --      4.3285                 3.2999                 3.6464
 Frc consts  --      0.0013                 0.0095                 0.0147
 IR Inten    --      0.4985                 2.0621                 1.1049

                      4                      5                      6
                      A                      A                      A
 Frequencies --    157.7865               200.0239               249.7110
 Red. masses --      2.9211                 3.0471                 2.6121
 Frc consts  --      0.0428                 0.0718                 0.0960
 IR Inten    --      4.3707                 0.6718                 7.1089

                      7                      8                      9
                      A                      A                      A
 Frequencies --    256.7655               285.6335               331.3841
 Red. masses --      2.0504                 3.3516                 2.6768
 Frc consts  --      0.0796                 0.1611                 0.1732
 IR Inten    --      6.6673                 3.1920                10.2759

                     10                     11                     12
                      A                      A                      A
 Frequencies --    362.3734               377.1353               435.2083
 Red. masses --      2.4862                 2.6120                 3.3864
 Frc consts  --      0.1924                 0.2189                 0.3779
 IR Inten    --     13.7989                 9.7849                 3.1920

                     13                     14                     15
                      A                      A                      A
 Frequencies --    450.6843               457.8545               481.3401
 Red. masses --      2.5967                 3.4181                 3.5550
 Frc consts  --      0.3107                 0.4222                 0.4853
 IR Inten    --      2.7703                 4.4227                 1.4440

                     16                     17                     18
                      A                      A                      A
 Frequencies --    530.1932               543.8340               600.4820
 Red. masses --      2.3595                 2.2565                 2.1352
 Frc consts  --      0.3908                 0.3932                 0.4536
 IR Inten    --      3.2805                 8.0437                 5.8179

                     19                     20                     21
                      A                      A                      A
 Frequencies --    648.1986               825.2764               832.1982
 Red. masses --      3.4676                 2.1098                 1.8099
 Frc consts  --      0.8584                 0.8466                 0.7385
 IR Inten    --      9.7058                 7.2835                11.4945

                     22                     23                     24
                      A                      A                      A
 Frequencies --    863.9444               881.1235               882.6177
 Red. masses --      1.9829                 1.8759                 1.4438
 Frc consts  --      0.8720                 0.8581                 0.6627
 IR Inten    --     13.9203                13.3760                14.9027

                     25                     26                     27
                      A                      A                      A
 Frequencies --    899.6798               928.1146               949.9730
 Red. masses --      2.2286                 2.4813                 2.2057
 Frc consts  --      1.0628                 1.2593                 1.1728
 IR Inten    --     10.1241                60.6170                50.7543

                     28                     29                     30
                      A                      A                      A
 Frequencies --    958.0524               982.4948               998.2827
 Red. masses --      2.2471                 1.7936                 1.9273
 Frc consts  --      1.2152                 1.0201                 1.1316
 IR Inten    --      2.8710                39.6170                12.8196

                     31                     32                     33
                      A                      A                      A
 Frequencies --   1005.9840              1054.6761              1062.6453
 Red. masses --      1.7209                 1.5681                 1.7427
 Frc consts  --      1.0261                 1.0277                 1.1594
 IR Inten    --      8.1572               109.6137                14.5043

                     34                     35                     36
                      A                      A                      A
 Frequencies --   1069.7061              1095.9407              1114.7656
 Red. masses --      3.3013                 2.3292                 4.1686
 Frc consts  --      2.2257                 1.6483                 3.0522
 IR Inten    --     51.3854                39.1361               286.0160

                     37                     38                     39
                      A                      A                      A
 Frequencies --   1149.7184              1168.3621              1171.2456
 Red. masses --      2.3598                 2.5814                 2.3377
 Frc consts  --      1.8379                 2.0762                 1.8895
 IR Inten    --      2.0262               120.3501                20.3371

                     40                     41                     42
                      A                      A                      A
 Frequencies --   1187.3513              1199.3558              1206.0837
 Red. masses --      2.1056                 1.8401                 1.7442
 Frc consts  --      1.7490                 1.5595                 1.4949
 IR Inten    --     33.6588                65.8340               139.8162

                     43                     44                     45
                      A                      A                      A
 Frequencies --   1227.7312              1238.1345              1253.6927
 Red. masses --      2.1444                 1.6500                 1.6160
 Frc consts  --      1.9044                 1.4903                 1.4965
 IR Inten    --    212.7578                37.8361                29.2533

                     46                     47                     48
                      A                      A                      A
 Frequencies --   1279.4929              1303.2916              1315.1300
 Red. masses --      1.2306                 1.1706                 1.1950
 Frc consts  --      1.1870                 1.1715                 1.2178
 IR Inten    --      4.5402                17.3466                26.8312

                     49                     50                     51
                      A                      A                      A
 Frequencies --   1329.8331              1347.8869              1354.9710
 Red. masses --      1.2866                 1.3069                 1.3098
 Frc consts  --      1.3406                 1.3990                 1.4168
 IR Inten    --      9.8876                20.8529                 0.9960

                     52                     53                     54
                      A                      A                      A
 Frequencies --   1360.7451              1367.2551              1381.4302
 Red. masses --      1.2244                 1.4228                 1.4185
 Frc consts  --      1.3358                 1.5671                 1.5949
 IR Inten    --      3.9679                 0.3045                13.2420

                     55                     56                     57
                      A                      A                      A
 Frequencies --   1384.5056              1396.4609              1404.6773
 Red. masses --      1.4997                 1.2527                 1.4201
 Frc consts  --      1.6937                 1.4393                 1.6509
 IR Inten    --      4.2002                11.2886                14.6750

                     58                     59                     60
                      A                      A                      A
 Frequencies --   1416.5043              1421.2450              1429.7803
 Red. masses --      1.4783                 1.3421                 1.4180
 Frc consts  --      1.7477                 1.5972                 1.7079
 IR Inten    --      3.7291                10.4891                 7.7476

                     61                     62                     63
                      A                      A                      A
 Frequencies --   1444.7828              1470.3224              1472.2380
 Red. masses --      1.4642                 1.1093                 1.0952
 Frc consts  --      1.8007                 1.4129                 1.3986
 IR Inten    --     60.8982                 5.0910                 9.5964

                     64                     65                     66
                      A                      A                      A
 Frequencies --   1474.0661              1490.0187              1492.8237
 Red. masses --      1.1131                 1.1174                 1.1257
 Frc consts  --      1.4250                 1.4617                 1.4781
 IR Inten    --     10.7173                14.8418                22.8697

                     67                     68                     69
                      A                      A                      A
 Frequencies --   1496.9621              1504.4840              1506.5237
 Red. masses --      1.0853                 1.0955                 1.1039
 Frc consts  --      1.4329                 1.4610                 1.4762
 IR Inten    --      1.7013                 5.8016                 7.3372

                     70                     71                     72
                      A                      A                      A
 Frequencies --   3031.1254              3033.8185              3034.8441
 Red. masses --      1.0684                 1.0702                 1.0700
 Frc consts  --      5.7835                 5.8035                 5.8061
 IR Inten    --     42.1612                64.2529                83.1888

                     73                     74                     75
                      A                      A                      A
 Frequencies --   3060.3076              3060.9138              3068.8166
 Red. masses --      1.0769                 1.0718                 1.0619
 Frc consts  --      5.9421                 5.9164                 5.8921
 IR Inten    --     17.5128                38.2463                43.8454

                     76                     77                     78
                      A                      A                      A
 Frequencies --   3071.3032              3073.4686              3073.6188
 Red. masses --      1.0807                 1.0637                 1.0643
 Frc consts  --      6.0060                 5.9202                 5.9243
 IR Inten    --     43.6381                66.4990                 9.9013

                     79                     80                     81
                      A                      A                      A
 Frequencies --   3081.6573              3118.0146              3121.2017
 Red. masses --      1.0629                 1.0968                 1.1017
 Frc consts  --      5.9473                 6.2828                 6.3238
 IR Inten    --     67.0482                40.1501                60.2859

                     82                     83                     84
                      A                      A                      A
 Frequencies --   3124.6253              3129.1011              3131.9286
 Red. masses --      1.1000                 1.1040                 1.1048
 Frc consts  --      6.3278                 6.3685                 6.3850
 IR Inten    --     34.6821                44.2234                59.0174

                     85                     86                     87
                      A                      A                      A
 Frequencies --   3137.4662              3139.8181              3140.6567
 Red. masses --      1.0969                 1.0958                 1.0968
 Frc consts  --      6.3617                 6.3650                 6.3742
 IR Inten    --     41.5101                40.2912                42.7192

 - Thermochemistry -
 -------------------
 Temperature   298.150 Kelvin.  Pressure   1.00000 Atm.
 Atom     1 has atomic number  6 and mass  12.00000

 Molecular mass:   186.12559 amu.
 Principal axes and moments of inertia in atomic units:
                           1         2         3
     Eigenvalues --   930.071654518.891574714.91997
           X            0.99997  -0.00584  -0.00415
           Y            0.00585   0.99998   0.00323
           Z            0.00413  -0.00326   0.99999
 This molecule is an asymmetric top.
 Rotational symmetry number  1.
 Warning -- assumption of classical behavior for rotation
           may cause significant error
 Rotational temperatures (Kelvin)      0.09313     0.01917     0.01837
 Rotational constants (GHZ):           1.94043     0.39938     0.38277
    1 imaginary frequencies ignored.
 Zero-point vibrational energy     736938.2 (Joules/Mol)
                                  176.13245 (Kcal/Mol)
 Warning -- explicit consideration of  17 degrees of freedom as
           vibrations may cause significant error
 Vibrational temperatures:    100.47   119.04   227.02   287.79   359.28
          (Kelvin)            369.43   410.96   476.79   521.37   542.61
                              626.17   648.43   658.75   692.54   762.83
                              782.46   863.96   932.61  1187.39  1197.35
                             1243.02  1267.74  1269.89  1294.44  1335.35
                             1366.80  1378.42  1413.59  1436.31  1447.39
                             1517.44  1528.91  1539.07  1576.81  1603.90
                             1654.19  1681.01  1685.16  1708.33  1725.61
                             1735.29  1766.43  1781.40  1803.78  1840.90
                             1875.15  1892.18  1913.33  1939.31  1949.50
                             1957.81  1967.18  1987.57  1991.99  2009.20
                             2021.02  2038.03  2044.85  2057.13  2078.72
                             2115.47  2118.22  2120.85  2143.80  2147.84
                             2153.79  2164.62  2167.55  4361.11  4364.99
                             4366.46  4403.10  4403.97  4415.34  4418.92
                             4422.04  4422.25  4433.82  4486.13  4490.71
                             4495.64  4502.08  4506.15  4514.11  4517.50
                             4518.70

 Zero-point correction=                           0.280685 (Hartree/Particle)
 Thermal correction to Energy=                    0.291549
 Thermal correction to Enthalpy=                  0.292493
 Thermal correction to Gibbs Free Energy=         0.244130
 Sum of electronic and zero-point Energies=           -617.222921
 Sum of electronic and thermal Energies=              -617.212058
 Sum of electronic and thermal Enthalpies=            -617.211113
 Sum of electronic and thermal Free Energies=         -617.259476

                     E (Thermal)             CV                S
                      KCal/Mol        Cal/Mol-Kelvin    Cal/Mol-Kelvin
 Total                  182.950             44.849            101.788
 Electronic               0.000              0.000              0.000
 Translational            0.889              2.981             41.570
 Rotational               0.889              2.981             31.361
 Vibrational            181.172             38.887             28.857
 Vibration     1          0.598              1.969              4.158
 Vibration     2          0.600              1.961              3.825
 Vibration     3          0.621              1.894              2.576
 Vibration     4          0.638              1.840              2.133
 Vibration     5          0.663              1.763              1.733
 Vibration     6          0.666              1.751              1.684
 Vibration     7          0.683              1.700              1.500
 Vibration     8          0.714              1.613              1.253
 Vibration     9          0.736              1.550              1.112
 Vibration    10          0.748              1.519              1.051
 Vibration    11          0.796              1.393              0.842
 Vibration    12          0.809              1.359              0.794
 Vibration    13          0.816              1.344              0.772
 Vibration    14          0.838              1.291              0.706
 Vibration    15          0.885              1.183              0.587
 Vibration    16          0.899              1.153              0.557
 Vibration    17          0.959              1.031              0.449

 Optimization completed.
    -- Stationary point found.
 Normal termination of Gaussian 16 at Sun Mar 10 05:17:55 2019.
