 Gaussian 16, Revision B.01,
 Gaussian 16:  ES64L-G16RevB.01 20-Dec-2017

 ----------------------------------------------------------------------
 #M062X/6-311++G(2d,2p) opt=ModRedundant freq=noraman SCRF=(SMD,solvent
 =water)
 ----------------------------------------------------------------------

 -------------------------------
 4c1_b1_4e_4c1_PSI.inp_extract_1
 -------------------------------
 Symbolic Z-matrix:
 Charge =  0 Multiplicity = 1

 SCF Done:  E(RM062X) =  -617.506256846     A.U. after   12 cycles
 SCF Done:  E(RM062X) =  -617.507795120     A.U. after   10 cycles
 SCF Done:  E(RM062X) =  -617.507904802     A.U. after    9 cycles
 SCF Done:  E(RM062X) =  -617.507915864     A.U. after    8 cycles
 SCF Done:  E(RM062X) =  -617.507916910     A.U. after    7 cycles
 Optimization completed.
    -- Stationary point found.
 Normal termination of Gaussian 16 at Sun Mar 10 02:32:43 2019.

 ----------------------------------------------------------------------
 #N Geom=AllCheck Guess=TCheck SCRF=Check GenChk RM062X/6-311++G(2d,2p)
  Freq
 ----------------------------------------------------------------------

 Structure from the checkpoint file:  "4c1_b1_4e_4c1_PSI.inp_extract_1.chk"
 -------------------------------
 4c1_b1_4e_4c1_PSI.inp_extract_1
 -------------------------------
 Charge =  0 Multiplicity = 1

                         Standard orientation:
 ---------------------------------------------------------------------
 Center     Atomic      Atomic             Coordinates (Angstroms)
 Number     Number       Type             X           Y           Z
 ---------------------------------------------------------------------
      1          6           0       -3.674193   -0.872667   -0.077934
      2          6           0        2.111237   -1.292395   -0.255008
      3          6           0        3.113319    1.351101    0.174310
      4          8           0        3.317056   -0.842342   -0.853027
      5          8           0       -1.484362    0.975355    0.020712
      6          6           0       -2.683296    1.335734   -0.670583
      7          8           0       -0.024952   -0.673730    0.586928
      8          6           0       -3.887894    0.639259   -0.063558
      9          6           0        1.771696    0.950696    0.787418
     10          6           0       -1.228372   -0.419054   -0.074342
     11          6           0        3.979657    0.122361   -0.034920
     12          6           0        1.136136   -0.140813   -0.056417
     13          6           0       -2.335643   -1.219736    0.574196
     14          1           0       -4.486310   -1.385305    0.435631
     15          1           0       -3.671216   -1.225108   -1.112743
     16          1           0        2.324067   -1.754714    0.716341
     17          1           0        1.682848   -2.042658   -0.917453
     18          1           0        2.952737    1.839788   -0.789221
     19          1           0        3.636938    2.055964    0.820187
     20          1           0       -2.580764    1.065692   -1.727614
     21          1           0       -2.760276    2.418006   -0.596547
     22          1           0       -4.017750    0.988089    0.963412
     23          1           0       -4.781305    0.913871   -0.625011
     24          1           0        1.930837    0.553754    1.793941
     25          1           0        1.099168    1.804464    0.864773
     26          1           0       -1.134561   -0.674815   -1.138997
     27          1           0        4.906306    0.369763   -0.548351
     28          1           0        4.224208   -0.338426    0.928835
     29          1           0        0.859949    0.260821   -1.034778
     30          1           0       -2.353031   -0.969274    1.637413
     31          1           0       -2.109666   -2.281075    0.474301
 ---------------------------------------------------------------------

 SCF Done:  E(RM062X) =  -617.507916910     A.U. after    1 cycles

 The electronic state is 1-A.
 Alpha  occ. eigenvalues --  -19.63780 -19.63123 -19.63025 -10.63371 -10.58318
 Alpha  occ. eigenvalues --  -10.57515 -10.57502 -10.57405 -10.52567 -10.52519
 Alpha  occ. eigenvalues --  -10.52473 -10.52420 -10.52251  -1.20186  -1.16340
 Alpha  occ. eigenvalues --   -1.13692  -0.90633  -0.89426  -0.86847  -0.83588
 Alpha  occ. eigenvalues --   -0.74205  -0.73686  -0.72297  -0.69821  -0.66113
 Alpha  occ. eigenvalues --   -0.64232  -0.59804  -0.57851  -0.56933  -0.55255
 Alpha  occ. eigenvalues --   -0.54536  -0.52491  -0.51432  -0.50615  -0.50042
 Alpha  occ. eigenvalues --   -0.47923  -0.46370  -0.45767  -0.45370  -0.44180
 Alpha  occ. eigenvalues --   -0.43030  -0.40334  -0.40238  -0.39835  -0.39351
 Alpha  occ. eigenvalues --   -0.39014  -0.37841  -0.37124  -0.35433  -0.32704
 Alpha  occ. eigenvalues --   -0.31867
 Alpha virt. eigenvalues --    0.00516   0.01297   0.01317   0.01479   0.02592
 Alpha virt. eigenvalues --    0.02871   0.03054   0.04033   0.04213   0.04696
 Alpha virt. eigenvalues --    0.04829   0.05259   0.05991   0.06088   0.07162

 Mulliken charges:
               1
     1  C   -0.422787
     2  C   -0.303843
     3  C   -0.348541
     4  O   -0.375832
     5  O   -0.420590
     6  C   -0.168836
     7  O   -0.350314
     8  C   -0.322120
     9  C   -0.322316
    10  C   -0.072161
    11  C   -0.178883
    12  C    0.052188
    13  C   -0.237922
    14  H    0.201800
    15  H    0.175649
    16  H    0.204950
    17  H    0.204447
    18  H    0.165058
    19  H    0.186114
    20  H    0.157527
    21  H    0.201912
    22  H    0.159596
    23  H    0.180829
    24  H    0.204874
    25  H    0.181125
    26  H    0.249329
    27  H    0.214938
    28  H    0.153292
    29  H    0.252354
    30  H    0.196393
    31  H    0.181769
 Sum of Mulliken charges =   0.00000

 Dipole moment (field-independent basis, Debye):
    X=             -2.3349    Y=              0.7033    Z=             -0.7949  Tot=              2.5648
 Quadrupole moment (field-independent basis, Debye-Ang):
   XX=            -69.5544   YY=            -79.5131   ZZ=            -81.6440
   XY=              5.8183   XZ=              9.1680   YZ=             -1.4675

  Exact polarizability: 186.754   1.066 173.550   1.637  -1.139 168.101
 Approx polarizability: 147.324   0.631 142.595   1.331  -0.545 142.601

                      1                      2                      3
                      A                      A                      A
 Frequencies --     18.5135                57.4108                75.0814
 Red. masses --      3.8596                 3.7938                 3.5757
 Frc consts  --      0.0008                 0.0074                 0.0119
 IR Inten    --      3.7029                 1.5774                 2.4168

                      4                      5                      6
                      A                      A                      A
 Frequencies --    146.1670               203.9318               244.4379
 Red. masses --      2.9527                 3.1952                 2.1895
 Frc consts  --      0.0372                 0.0783                 0.0771
 IR Inten    --      1.0470                 0.4244                 4.8454

                      7                      8                      9
                      A                      A                      A
 Frequencies --    247.9845               279.6709               316.1693
 Red. masses --      2.2830                 3.3351                 3.2164
 Frc consts  --      0.0827                 0.1537                 0.1894
 IR Inten    --      9.4539                 1.3124                19.6015

                     10                     11                     12
                      A                      A                      A
 Frequencies --    355.1666               389.7553               434.4309
 Red. masses --      2.0323                 2.5438                 2.7319
 Frc consts  --      0.1510                 0.2277                 0.3038
 IR Inten    --      5.6266                 5.7026                10.3857

                     13                     14                     15
                      A                      A                      A
 Frequencies --    442.8638               464.9504               499.7283
 Red. masses --      3.8770                 3.1477                 3.0583
 Frc consts  --      0.4480                 0.4009                 0.4500
 IR Inten    --      1.9998                 1.2739                 2.6571

                     16                     17                     18
                      A                      A                      A
 Frequencies --    520.5426               545.8240               600.4281
 Red. masses --      2.7448                 2.1923                 2.1602
 Frc consts  --      0.4382                 0.3848                 0.4589
 IR Inten    --      2.0294                15.0714                11.0134

                     19                     20                     21
                      A                      A                      A
 Frequencies --    649.4687               831.0549               834.2510
 Red. masses --      3.0270                 2.2077                 1.8030
 Frc consts  --      0.7523                 0.8984                 0.7393
 IR Inten    --      0.8411                 6.8446                 4.9156

                     22                     23                     24
                      A                      A                      A
 Frequencies --    863.0420               875.3766               883.6341
 Red. masses --      1.9006                 1.4054                 1.8887
 Frc consts  --      0.8341                 0.6345                 0.8689
 IR Inten    --     12.5757                13.0570                10.6359

                     25                     26                     27
                      A                      A                      A
 Frequencies --    899.2760               932.5836               942.2269
 Red. masses --      2.3239                 2.3863                 2.2595
 Frc consts  --      1.1073                 1.2228                 1.1819
 IR Inten    --     15.6069                59.6686                57.5016

                     28                     29                     30
                      A                      A                      A
 Frequencies --    960.8641               984.4740               996.1130
 Red. masses --      2.0772                 2.0674                 1.3826
 Frc consts  --      1.1299                 1.1806                 0.8083
 IR Inten    --     11.3159                51.7037                 0.7428

                     31                     32                     33
                      A                      A                      A
 Frequencies --   1010.3143              1053.1266              1057.2160
 Red. masses --      2.1561                 1.6942                 1.5540
 Frc consts  --      1.2967                 1.1071                 1.0234
 IR Inten    --     14.2737                27.0984                91.5608

                     34                     35                     36
                      A                      A                      A
 Frequencies --   1095.1201              1097.3349              1120.0395
 Red. masses --      2.8108                 3.0748                 4.0556
 Frc consts  --      1.9861                 2.1815                 2.9976
 IR Inten    --     26.3768               122.4308               260.3419

                     37                     38                     39
                      A                      A                      A
 Frequencies --   1153.6623              1158.2819              1170.5484
 Red. masses --      2.2634                 2.8903                 2.4305
 Frc consts  --      1.7748                 2.2847                 1.9621
 IR Inten    --      8.9135               126.9911                42.6286

                     40                     41                     42
                      A                      A                      A
 Frequencies --   1183.8517              1205.1813              1210.3577
 Red. masses --      2.1797                 1.5189                 1.6456
 Frc consts  --      1.7998                 1.2999                 1.4203
 IR Inten    --     13.1371                16.1022               156.2113

                     43                     44                     45
                      A                      A                      A
 Frequencies --   1227.9628              1239.7810              1247.0295
 Red. masses --      2.7082                 1.6609                 1.6316
 Frc consts  --      2.4060                 1.5041                 1.4949
 IR Inten    --    105.5210                54.3001               104.1752

                     46                     47                     48
                      A                      A                      A
 Frequencies --   1280.1318              1305.0444              1314.8346
 Red. masses --      1.2266                 1.2034                 1.1926
 Frc consts  --      1.1843                 1.2076                 1.2148
 IR Inten    --      5.5063                24.3441                32.8567

                     49                     50                     51
                      A                      A                      A
 Frequencies --   1330.8387              1340.5733              1347.5387
 Red. masses --      1.3234                 1.2723                 1.2782
 Frc consts  --      1.3810                 1.3471                 1.3675
 IR Inten    --     10.2154                 4.2547                 5.2117

                     52                     53                     54
                      A                      A                      A
 Frequencies --   1364.4263              1368.7914              1382.1936
 Red. masses --      1.2786                 1.4391                 1.4347
 Frc consts  --      1.4025                 1.5886                 1.6149
 IR Inten    --     16.5927                 6.8849                 5.1771

                     55                     56                     57
                      A                      A                      A
 Frequencies --   1385.7370              1393.1475              1399.6792
 Red. masses --      1.5181                 1.4715                 1.2575
 Frc consts  --      1.7175                 1.6827                 1.4515
 IR Inten    --      2.6354                37.3622                15.6112

                     58                     59                     60
                      A                      A                      A
 Frequencies --   1413.6268              1422.5100              1430.6570
 Red. masses --      1.4242                 1.3090                 1.4867
 Frc consts  --      1.6769                 1.5606                 1.7929
 IR Inten    --     33.2641                 7.4260                32.8426

                     61                     62                     63
                      A                      A                      A
 Frequencies --   1453.1112              1470.2467              1471.4676
 Red. masses --      1.4038                 1.0942                 1.1117
 Frc consts  --      1.7465                 1.3936                 1.4183
 IR Inten    --     17.4179                 8.2350                 5.3546

                     64                     65                     66
                      A                      A                      A
 Frequencies --   1474.3767              1487.2674              1491.0022
 Red. masses --      1.1228                 1.1301                 1.1350
 Frc consts  --      1.4380                 1.4728                 1.4867
 IR Inten    --     11.6446                15.9839                25.5769

                     67                     68                     69
                      A                      A                      A
 Frequencies --   1497.0895              1505.1820              1505.9641
 Red. masses --      1.0880                 1.0957                 1.1025
 Frc consts  --      1.4367                 1.4625                 1.4731
 IR Inten    --      1.9322                 4.2783                10.3635

                     70                     71                     72
                      A                      A                      A
 Frequencies --   3013.2907              3032.6495              3037.3234
 Red. masses --      1.0828                 1.0681                 1.0696
 Frc consts  --      5.7927                 5.7879                 5.8135
 IR Inten    --     76.3511                47.7382                95.9949

                     73                     74                     75
                      A                      A                      A
 Frequencies --   3037.6381              3059.4596              3062.4022
 Red. masses --      1.0702                 1.0680                 1.0686
 Frc consts  --      5.8180                 5.8902                 5.9046
 IR Inten    --     57.3141                11.0398                22.5847

                     76                     77                     78
                      A                      A                      A
 Frequencies --   3070.2282              3071.8554              3073.7914
 Red. masses --      1.0616                 1.0656                 1.0618
 Frc consts  --      5.8961                 5.9244                 5.9107
 IR Inten    --     41.7160                12.8417                63.1103

                     79                     80                     81
                      A                      A                      A
 Frequencies --   3074.5693              3119.6465              3121.9746
 Red. masses --      1.0778                 1.0979                 1.0985
 Frc consts  --      6.0031                 6.2952                 6.3080
 IR Inten    --     74.9548                40.7405                36.6467

                     82                     83                     84
                      A                      A                      A
 Frequencies --   3123.1152              3125.5023              3131.0052
 Red. masses --      1.1009                 1.1025                 1.1035
 Frc consts  --      6.3266                 6.3456                 6.3735
 IR Inten    --     59.4591                54.1456                49.6374

                     85                     86                     87
                      A                      A                      A
 Frequencies --   3135.0722              3139.6447              3142.4795
 Red. masses --      1.0974                 1.0969                 1.0960
 Frc consts  --      6.3551                 6.3704                 6.3766
 IR Inten    --     39.4733                42.2367                39.9807

 - Thermochemistry -
 -------------------
 Temperature   298.150 Kelvin.  Pressure   1.00000 Atm.
 Atom     1 has atomic number  6 and mass  12.00000

 Molecular mass:   186.12559 amu.
 Principal axes and moments of inertia in atomic units:
                           1         2         3
     Eigenvalues --   838.352854890.624185339.42291
           X            0.99994   0.00866   0.00724
           Y           -0.00858   0.99991  -0.01066
           Z           -0.00733   0.01060   0.99992
 This molecule is an asymmetric top.
 Rotational symmetry number  1.
 Warning -- assumption of classical behavior for rotation
           may cause significant error
 Rotational temperatures (Kelvin)      0.10331     0.01771     0.01622
 Rotational constants (GHZ):           2.15272     0.36902     0.33800
 Zero-point vibrational energy     736494.8 (Joules/Mol)
                                  176.02648 (Kcal/Mol)
 Warning -- explicit consideration of  18 degrees of freedom as
           vibrations may cause significant error
 Vibrational temperatures:     26.64    82.60   108.03   210.30   293.41
          (Kelvin)            351.69   356.79   402.38   454.90   511.01
                              560.77   625.05   637.18   668.96   719.00
                              748.94   785.32   863.88   934.44  1195.70
                             1200.30  1241.73  1259.47  1271.35  1293.86
                             1341.78  1355.65  1382.47  1416.44  1433.18
                             1453.62  1515.21  1521.10  1575.63  1578.82
                             1611.49  1659.86  1666.51  1684.16  1703.30
                             1733.99  1741.43  1766.76  1783.77  1794.20
                             1841.82  1877.67  1891.75  1914.78  1928.79
                             1938.81  1963.11  1969.39  1988.67  1993.77
                             2004.43  2013.83  2033.89  2046.67  2058.40
                             2090.70  2115.36  2117.11  2121.30  2139.85
                             2145.22  2153.98  2165.62  2166.75  4335.45
                             4363.31  4370.03  4370.48  4401.88  4406.11
                             4417.37  4419.71  4422.50  4423.62  4488.48
                             4491.83  4493.47  4496.90  4504.82  4510.67
                             4517.25  4521.33

 Zero-point correction=                           0.280516 (Hartree/Particle)
 Thermal correction to Energy=                    0.292367
 Thermal correction to Enthalpy=                  0.293311
 Thermal correction to Gibbs Free Energy=         0.241274
 Sum of electronic and zero-point Energies=           -617.227401
 Sum of electronic and thermal Energies=              -617.215550
 Sum of electronic and thermal Enthalpies=            -617.214606
 Sum of electronic and thermal Free Energies=         -617.266643

                     E (Thermal)             CV                S
                      KCal/Mol        Cal/Mol-Kelvin    Cal/Mol-Kelvin
 Total                  183.463             46.860            109.520
 Electronic               0.000              0.000              0.000
 Translational            0.889              2.981             41.570
 Rotational               0.889              2.981             31.460
 Vibrational            181.685             40.899             36.491
 Vibration     1          0.593              1.986              6.788
 Vibration     2          0.596              1.975              4.544
 Vibration     3          0.599              1.966              4.016
 Vibration     4          0.617              1.907              2.722
 Vibration     5          0.640              1.834              2.097
 Vibration     6          0.660              1.772              1.770
 Vibration     7          0.662              1.766              1.745
 Vibration     8          0.680              1.711              1.536
 Vibration     9          0.703              1.643              1.330
 Vibration    10          0.731              1.565              1.143
 Vibration    11          0.758              1.492              1.001
 Vibration    12          0.795              1.395              0.844
 Vibration    13          0.802              1.377              0.818
 Vibration    14          0.822              1.328              0.752
 Vibration    15          0.855              1.251              0.659
 Vibration    16          0.876              1.205              0.609
 Vibration    17          0.901              1.149              0.553
 Vibration    18          0.959              1.031              0.449

 Optimization completed.
    -- Stationary point found.
 Normal termination of Gaussian 16 at Sun Mar 10 03:30:56 2019.
