 Gaussian 16, Revision B.01,
 Gaussian 16:  ES64L-G16RevB.01 20-Dec-2017

 ----------------------------------------------------------------------
 #M062X/6-311++G(2d,2p) opt=ModRedundant freq=noraman SCRF=(SMD,solvent
 =water)
 ----------------------------------------------------------------------

 -------------------------------
 4c1_b1_4e_4c1_PSI.inp_extract_4
 -------------------------------
 Symbolic Z-matrix:
 Charge =  0 Multiplicity = 1

 SCF Done:  E(RM062X) =  -617.506635687     A.U. after   12 cycles
 SCF Done:  E(RM062X) =  -617.508223343     A.U. after   10 cycles
 SCF Done:  E(RM062X) =  -617.508318108     A.U. after    9 cycles
 SCF Done:  E(RM062X) =  -617.508327010     A.U. after    8 cycles
 SCF Done:  E(RM062X) =  -617.508328257     A.U. after    8 cycles
 SCF Done:  E(RM062X) =  -617.508328696     A.U. after    7 cycles
 SCF Done:  E(RM062X) =  -617.508328976     A.U. after    7 cycles
 SCF Done:  E(RM062X) =  -617.508329077     A.U. after    7 cycles
 Optimization completed.
    -- Stationary point found.
 Normal termination of Gaussian 16 at Sun Mar 10 02:46:00 2019.

 ----------------------------------------------------------------------
 #N Geom=AllCheck Guess=TCheck SCRF=Check GenChk RM062X/6-311++G(2d,2p)
  Freq
 ----------------------------------------------------------------------

 Structure from the checkpoint file:  "4c1_b1_4e_4c1_PSI.inp_extract_4.chk"
 -------------------------------
 4c1_b1_4e_4c1_PSI.inp_extract_4
 -------------------------------
 Charge =  0 Multiplicity = 1

                         Standard orientation:
 ---------------------------------------------------------------------
 Center     Atomic      Atomic             Coordinates (Angstroms)
 Number     Number       Type             X           Y           Z
 ---------------------------------------------------------------------
      1          6           0       -3.540507   -1.014679    0.182994
      2          6           0        1.722702   -1.098767   -0.434466
      3          6           0        3.506279    1.018286    0.264116
      4          8           0        2.925945   -0.869142   -1.151922
      5          8           0       -1.635682    1.087067   -0.228788
      6          6           0       -2.814664    1.033910   -1.035966
      7          8           0       -0.017109   -0.051846    0.877309
      8          6           0       -3.957332    0.379135   -0.280822
      9          6           0        2.183315    0.867427    1.013518
     10          6           0       -1.184305   -0.214231    0.122915
     11          6           0        3.938880   -0.318481   -0.309909
     12          6           0        1.158369    0.211466    0.108006
     13          6           0       -2.221132   -0.939853    0.951600
     14          1           0       -4.312869   -1.464881    0.805063
     15          1           0       -3.410404   -1.659649   -0.690100
     16          1           0        1.910634   -1.776751    0.406619
     17          1           0        1.031455   -1.577600   -1.124954
     18          1           0        3.392271    1.735121   -0.551806
     19          1           0        4.283578    1.393848    0.929468
     20          1           0       -2.595094    0.475377   -1.952867
     21          1           0       -3.042826    2.062774   -1.304694
     22          1           0       -4.211739    0.998803    0.582032
     23          1           0       -4.833843    0.330981   -0.927562
     24          1           0        2.324456    0.227604    1.889096
     25          1           0        1.812518    1.832637    1.358243
     26          1           0       -0.976850   -0.762874   -0.804342
     27          1           0        4.827561   -0.218202   -0.929262
     28          1           0        4.151657   -1.027618    0.497899
     29          1           0        0.913637    0.876368   -0.724626
     30          1           0       -2.352620   -0.385556    1.883950
     31          1           0       -1.846380   -1.934284    1.193138
 ---------------------------------------------------------------------

 SCF Done:  E(RM062X) =  -617.508329077     A.U. after    1 cycles

 The electronic state is 1-A.
 Alpha  occ. eigenvalues --  -19.63910 -19.63169 -19.62971 -10.63321 -10.58388
 Alpha  occ. eigenvalues --  -10.57502 -10.57495 -10.57420 -10.52625 -10.52565
 Alpha  occ. eigenvalues --  -10.52562 -10.52487 -10.52243  -1.20170  -1.16368
 Alpha  occ. eigenvalues --   -1.13732  -0.90651  -0.89526  -0.86661  -0.83710
 Alpha  occ. eigenvalues --   -0.74561  -0.73441  -0.72508  -0.69656  -0.65849
 Alpha  occ. eigenvalues --   -0.64510  -0.59779  -0.57790  -0.57316  -0.55103
 Alpha  occ. eigenvalues --   -0.54465  -0.52543  -0.51841  -0.50626  -0.49968
 Alpha  occ. eigenvalues --   -0.48046  -0.45881  -0.45537  -0.45373  -0.44040
 Alpha  occ. eigenvalues --   -0.43987  -0.40532  -0.40319  -0.40011  -0.39188
 Alpha  occ. eigenvalues --   -0.38204  -0.37845  -0.37243  -0.35986  -0.32603
 Alpha  occ. eigenvalues --   -0.31952
 Alpha virt. eigenvalues --    0.00501   0.01273   0.01401   0.01464   0.02582
 Alpha virt. eigenvalues --    0.02834   0.03024   0.04098   0.04252   0.04710
 Alpha virt. eigenvalues --    0.04836   0.05100   0.05904   0.06174   0.06986

 Mulliken charges:
               1
     1  C   -0.402498
     2  C   -0.322688
     3  C   -0.364218
     4  O   -0.377067
     5  O   -0.408353
     6  C   -0.151519
     7  O   -0.343267
     8  C   -0.331129
     9  C   -0.230219
    10  C    0.004000
    11  C   -0.160909
    12  C   -0.171180
    13  C   -0.242879
    14  H    0.201660
    15  H    0.176034
    16  H    0.210783
    17  H    0.215055
    18  H    0.167363
    19  H    0.193937
    20  H    0.152331
    21  H    0.205141
    22  H    0.161083
    23  H    0.181925
    24  H    0.208637
    25  H    0.176041
    26  H    0.253488
    27  H    0.216208
    28  H    0.150228
    29  H    0.263898
    30  H    0.198670
    31  H    0.169444
 Sum of Mulliken charges =   0.00000

 Dipole moment (field-independent basis, Debye):
    X=             -1.3181    Y=             -1.0313    Z=             -0.4070  Tot=              1.7224
 Quadrupole moment (field-independent basis, Debye-Ang):
   XX=            -65.0871   YY=            -80.7394   ZZ=            -83.4436
   XY=              5.6292   XZ=              9.1373   YZ=             -2.6592

  Exact polarizability: 188.679   1.176 169.878   2.174  -1.373 169.591
 Approx polarizability: 148.494   0.529 140.905   1.670  -0.570 142.992

                      1                      2                      3
                      A                      A                      A
 Frequencies --     33.8609                48.2462                73.2397
 Red. masses --      3.2996                 3.9676                 3.8213
 Frc consts  --      0.0022                 0.0054                 0.0121
 IR Inten    --      2.0747                 3.7587                 2.6188

                      4                      5                      6
                      A                      A                      A
 Frequencies --    153.6151               193.1664               243.6855
 Red. masses --      3.0418                 3.2047                 2.3475
 Frc consts  --      0.0423                 0.0705                 0.0821
 IR Inten    --      3.2837                 0.3123                 7.5926

                      7                      8                      9
                      A                      A                      A
 Frequencies --    250.2321               280.3508               336.8455
 Red. masses --      2.0553                 3.3536                 2.2094
 Frc consts  --      0.0758                 0.1553                 0.1477
 IR Inten    --      6.0373                 1.4116                 9.7553

                     10                     11                     12
                      A                      A                      A
 Frequencies --    359.1817               391.5872               439.5967
 Red. masses --      2.6784                 3.3067                 3.1210
 Frc consts  --      0.2036                 0.2987                 0.3553
 IR Inten    --     16.1444                13.3586                 2.9299

                     13                     14                     15
                      A                      A                      A
 Frequencies --    448.8740               464.0236               485.8110
 Red. masses --      2.6059                 3.5059                 3.5362
 Frc consts  --      0.3094                 0.4448                 0.4917
 IR Inten    --      1.9505                 2.4749                 2.5881

                     16                     17                     18
                      A                      A                      A
 Frequencies --    512.7365               546.6892               589.7994
 Red. masses --      2.6860                 2.1195                 1.9823
 Frc consts  --      0.4161                 0.3732                 0.4063
 IR Inten    --      1.6272                13.0391                 5.6331

                     19                     20                     21
                      A                      A                      A
 Frequencies --    655.8800               832.3223               834.8797
 Red. masses --      3.1093                 1.9234                 2.0184
 Frc consts  --      0.7881                 0.7850                 0.8289
 IR Inten    --      2.5279                11.7243                 2.5567

                     22                     23                     24
                      A                      A                      A
 Frequencies --    862.0145               879.7543               883.2139
 Red. masses --      1.9030                 1.4012                 1.8895
 Frc consts  --      0.8331                 0.6390                 0.8684
 IR Inten    --     11.0515                12.1331                11.9078

                     25                     26                     27
                      A                      A                      A
 Frequencies --    900.5104               932.7110               943.7627
 Red. masses --      2.3479                 2.4382                 2.1940
 Frc consts  --      1.1218                 1.2497                 1.1514
 IR Inten    --     10.8146                66.4596                35.6499

                     28                     29                     30
                      A                      A                      A
 Frequencies --    959.0771               988.9809               996.8890
 Red. masses --      2.1085                 2.0550                 1.4214
 Frc consts  --      1.1427                 1.1843                 0.8322
 IR Inten    --     10.4772                50.1353                 4.1838

                     31                     32                     33
                      A                      A                      A
 Frequencies --   1007.6872              1054.1825              1056.7109
 Red. masses --      2.0945                 1.7004                 1.5608
 Frc consts  --      1.2531                 1.1134                 1.0269
 IR Inten    --     14.2537                26.9819               102.6920

                     34                     35                     36
                      A                      A                      A
 Frequencies --   1092.9642              1100.1470              1119.2129
 Red. masses --      2.4956                 3.2954                 4.3155
 Frc consts  --      1.7564                 2.3499                 3.1850
 IR Inten    --     69.9386                66.2383               297.7918

                     37                     38                     39
                      A                      A                      A
 Frequencies --   1147.3287              1155.1082              1172.9831
 Red. masses --      2.3062                 3.0833                 2.4135
 Frc consts  --      1.7886                 2.4239                 1.9565
 IR Inten    --     17.2652               138.1641                42.5778

                     40                     41                     42
                      A                      A                      A
 Frequencies --   1184.1937              1203.9075              1209.9428
 Red. masses --      2.1418                 1.5338                 1.7573
 Frc consts  --      1.7696                 1.3098                 1.5158
 IR Inten    --      7.4059                19.2252               225.0865

                     43                     44                     45
                      A                      A                      A
 Frequencies --   1229.1522              1239.2175              1252.8879
 Red. masses --      2.4795                 1.6655                 1.5913
 Frc consts  --      2.2071                 1.5069                 1.4717
 IR Inten    --     23.7462                40.8656                85.5782

                     46                     47                     48
                      A                      A                      A
 Frequencies --   1279.8519              1305.2571              1315.5114
 Red. masses --      1.2310                 1.1796                 1.1902
 Frc consts  --      1.1880                 1.1841                 1.2136
 IR Inten    --      6.8621                18.1246                28.2504

                     49                     50                     51
                      A                      A                      A
 Frequencies --   1330.9262              1341.7485              1348.0560
 Red. masses --      1.2992                 1.2599                 1.3115
 Frc consts  --      1.3559                 1.3364                 1.4042
 IR Inten    --      9.3305                 3.8556                 7.6553

                     52                     53                     54
                      A                      A                      A
 Frequencies --   1356.8795              1367.7955              1382.3236
 Red. masses --      1.2297                 1.4569                 1.4570
 Frc consts  --      1.3339                 1.6059                 1.6403
 IR Inten    --     16.3855                 2.0674                 4.9657

                     55                     56                     57
                      A                      A                      A
 Frequencies --   1385.2344              1399.5930              1401.9849
 Red. masses --      1.5033                 1.4921                 1.2780
 Frc consts  --      1.6996                 1.7220                 1.4801
 IR Inten    --      3.1874                18.2055                10.0935

                     58                     59                     60
                      A                      A                      A
 Frequencies --   1413.3601              1423.1191              1436.2186
 Red. masses --      1.4753                 1.3417                 1.3978
 Frc consts  --      1.7364                 1.6010                 1.6987
 IR Inten    --     19.3769                15.4975                13.4170

                     61                     62                     63
                      A                      A                      A
 Frequencies --   1450.5102              1471.3023              1473.0408
 Red. masses --      1.4016                 1.1041                 1.1392
 Frc consts  --      1.7375                 1.4082                 1.4564
 IR Inten    --     45.3640                 6.0695                11.3601

                     64                     65                     66
                      A                      A                      A
 Frequencies --   1474.3084              1488.1000              1489.7599
 Red. masses --      1.0939                 1.1259                 1.1351
 Frc consts  --      1.4008                 1.4690                 1.4843
 IR Inten    --      7.8205                31.3968                12.9737

                     67                     68                     69
                      A                      A                      A
 Frequencies --   1497.4030              1505.5030              1506.2479
 Red. masses --      1.0883                 1.1023                 1.0973
 Frc consts  --      1.4378                 1.4720                 1.4668
 IR Inten    --      0.3226                 7.1874                 7.8903

                     70                     71                     72
                      A                      A                      A
 Frequencies --   3028.7085              3032.5072              3036.2545
 Red. masses --      1.0776                 1.0737                 1.0702
 Frc consts  --      5.8242                 5.8178                 5.8127
 IR Inten    --     35.4397                51.9923               114.5074

                     73                     74                     75
                      A                      A                      A
 Frequencies --   3036.3576              3058.8846              3060.3532
 Red. masses --      1.0703                 1.0667                 1.0688
 Frc consts  --      5.8140                 5.8804                 5.8977
 IR Inten    --     49.7773                15.0976                21.6583

                     76                     77                     78
                      A                      A                      A
 Frequencies --   3069.2467              3071.6328              3072.8512
 Red. masses --      1.0619                 1.0617                 1.0780
 Frc consts  --      5.8937                 5.9017                 5.9974
 IR Inten    --     36.9255                45.3284                28.7466

                     79                     80                     81
                      A                      A                      A
 Frequencies --   3074.2606              3118.2952              3118.9380
 Red. masses --      1.0657                 1.0996                 1.0972
 Frc consts  --      5.9342                 6.2999                 6.2886
 IR Inten    --     76.0838                45.0161                39.0157

                     82                     83                     84
                      A                      A                      A
 Frequencies --   3122.0643              3125.2682              3128.6046
 Red. masses --      1.1011                 1.1026                 1.1035
 Frc consts  --      6.3237                 6.3452                 6.3638
 IR Inten    --     57.6256                53.9430                50.7896

                     85                     86                     87
                      A                      A                      A
 Frequencies --   3139.0894              3141.0510              3141.1237
 Red. masses --      1.0958                 1.0968                 1.0960
 Frc consts  --      6.3620                 6.3758                 6.3715
 IR Inten    --     41.8227                38.7375                39.5824

 - Thermochemistry -
 -------------------
 Temperature   298.150 Kelvin.  Pressure   1.00000 Atm.
 Atom     1 has atomic number  6 and mass  12.00000

 Molecular mass:   186.12559 amu.
 Principal axes and moments of inertia in atomic units:
                           1         2         3
     Eigenvalues --   847.679805051.781405189.25200
           X            0.99993   0.00894   0.00730
           Y           -0.00848   0.99811  -0.06080
           Z           -0.00783   0.06073   0.99812
 This molecule is an asymmetric top.
 Rotational symmetry number  1.
 Warning -- assumption of classical behavior for rotation
           may cause significant error
 Rotational temperatures (Kelvin)      0.10218     0.01715     0.01669
 Rotational constants (GHZ):           2.12904     0.35725     0.34778
 Zero-point vibrational energy     736700.4 (Joules/Mol)
                                  176.07562 (Kcal/Mol)
 Warning -- explicit consideration of  18 degrees of freedom as
           vibrations may cause significant error
 Vibrational temperatures:     48.72    69.42   105.38   221.02   277.92
          (Kelvin)            350.61   360.03   403.36   484.65   516.78
                              563.41   632.48   645.83   667.63   698.97
                              737.71   786.56   848.59   943.67  1197.53
                             1201.21  1240.25  1265.77  1270.75  1295.63
                             1341.96  1357.86  1379.90  1422.92  1434.30
                             1449.84  1516.73  1520.37  1572.53  1582.87
                             1610.30  1650.75  1661.94  1687.66  1703.79
                             1732.15  1740.84  1768.48  1782.96  1802.63
                             1841.42  1877.97  1892.73  1914.91  1930.48
                             1939.55  1952.25  1967.95  1988.86  1993.04
                             2013.70  2017.14  2033.51  2047.55  2066.40
                             2086.96  2116.88  2119.38  2121.20  2141.04
                             2143.43  2154.43  2166.08  2167.15  4357.64
                             4363.10  4368.49  4368.64  4401.05  4403.17
                             4415.96  4419.39  4421.15  4423.18  4486.53
                             4487.46  4491.95  4496.56  4501.36  4516.45
                             4519.27  4519.38

 Zero-point correction=                           0.280594 (Hartree/Particle)
 Thermal correction to Energy=                    0.292413
 Thermal correction to Enthalpy=                  0.293357
 Thermal correction to Gibbs Free Energy=         0.241749
 Sum of electronic and zero-point Energies=           -617.227735
 Sum of electronic and thermal Energies=              -617.215916
 Sum of electronic and thermal Enthalpies=            -617.214972
 Sum of electronic and thermal Free Energies=         -617.266580

                     E (Thermal)             CV                S
                      KCal/Mol        Cal/Mol-Kelvin    Cal/Mol-Kelvin
 Total                  183.492             46.833            108.618
 Electronic               0.000              0.000              0.000
 Translational            0.889              2.981             41.570
 Rotational               0.889              2.981             31.475
 Vibrational            181.714             40.871             35.573
 Vibration     1          0.594              1.983              5.589
 Vibration     2          0.595              1.978              4.888
 Vibration     3          0.599              1.967              4.064
 Vibration     4          0.619              1.899              2.627
 Vibration     5          0.635              1.849              2.197
 Vibration     6          0.659              1.773              1.776
 Vibration     7          0.663              1.762              1.729
 Vibration     8          0.680              1.710              1.532
 Vibration     9          0.718              1.602              1.227
 Vibration    10          0.734              1.556              1.126
 Vibration    11          0.759              1.488              0.994
 Vibration    12          0.800              1.384              0.828
 Vibration    13          0.808              1.363              0.799
 Vibration    14          0.822              1.330              0.754
 Vibration    15          0.842              1.282              0.695
 Vibration    16          0.868              1.222              0.627
 Vibration    17          0.902              1.147              0.551
 Vibration    18          0.947              1.054              0.468

 Optimization completed.
    -- Stationary point found.
 Normal termination of Gaussian 16 at Sun Mar 10 03:46:49 2019.
