 Gaussian 16, Revision B.01,
 Gaussian 16:  ES64L-G16RevB.01 20-Dec-2017

 ----------------------------------------------------------------------
 #M062X/6-311++G(2d,2p) opt=ModRedundant freq=noraman SCRF=(SMD,solvent
 =water)
 ----------------------------------------------------------------------

 --------------------------------
 4c1_b1_4e_4c1_PSI.inp_extract_12
 --------------------------------
 Symbolic Z-matrix:
 Charge =  0 Multiplicity = 1

 SCF Done:  E(RM062X) =  -617.503577745     A.U. after   12 cycles
 SCF Done:  E(RM062X) =  -617.505141189     A.U. after   11 cycles
 SCF Done:  E(RM062X) =  -617.505522668     A.U. after   11 cycles
 SCF Done:  E(RM062X) =  -617.505639979     A.U. after   10 cycles
 SCF Done:  E(RM062X) =  -617.505643876     A.U. after    8 cycles
 SCF Done:  E(RM062X) =  -617.505644223     A.U. after    7 cycles
 Optimization completed.
    -- Stationary point found.
 Normal termination of Gaussian 16 at Sun Mar 10 04:01:06 2019.

 ----------------------------------------------------------------------
 #N Geom=AllCheck Guess=TCheck SCRF=Check GenChk RM062X/6-311++G(2d,2p)
  Freq
 ----------------------------------------------------------------------

 Structure from the checkpoint file:  "4c1_b1_4e_4c1_PSI.inp_extract_12.chk"
 --------------------------------
 4c1_b1_4e_4c1_PSI.inp_extract_12
 --------------------------------
 Charge =  0 Multiplicity = 1

                         Standard orientation:
 ---------------------------------------------------------------------
 Center     Atomic      Atomic             Coordinates (Angstroms)
 Number     Number       Type             X           Y           Z
 ---------------------------------------------------------------------
      1          6           0        3.331320   -0.828182    0.713643
      2          6           0       -1.449118    1.046958   -0.395250
      3          6           0       -3.375680   -0.887744    0.511893
      4          8           0       -2.829186    1.353087   -0.242859
      5          8           0        1.455060    0.912166   -0.575590
      6          6           0        2.432061    1.460885    0.311708
      7          8           0        0.057139   -0.816131   -1.048624
      8          6           0        3.686705    0.606123    0.328917
      9          6           0       -1.930744   -1.325284    0.273909
     10          6           0        1.040113   -0.379689   -0.154086
     11          6           0       -3.425476    0.598827    0.811923
     12          6           0       -1.293605   -0.424727   -0.774135
     13          6           0        2.203296   -1.348598   -0.177523
     14          1           0        4.201751   -1.478510    0.638114
     15          1           0        3.001445   -0.848427    1.755767
     16          1           0       -0.922778    1.271932    0.538516
     17          1           0       -1.065740    1.692196   -1.182142
     18          1           0       -3.976327   -1.088637   -0.377829
     19          1           0       -3.815670   -1.441118    1.341542
     20          1           0        2.002118    1.527758    1.317904
     21          1           0        2.632799    2.468411   -0.045285
     22          1           0        4.139391    0.624613   -0.665032
     23          1           0        4.403481    1.033753    1.030493
     24          1           0       -1.367509   -1.245683    1.207916
     25          1           0       -1.881913   -2.361486   -0.060422
     26          1           0        0.636702   -0.296599    0.862845
     27          1           0       -4.449760    0.955014    0.898401
     28          1           0       -2.897798    0.817307    1.747288
     29          1           0       -1.814069   -0.569200   -1.722469
     30          1           0        2.542752   -1.440512   -1.212059
     31          1           0        1.853778   -2.325203    0.157039
 ---------------------------------------------------------------------

 SCF Done:  E(RM062X) =  -617.505644223     A.U. after    1 cycles

 The electronic state is 1-A.
 Alpha  occ. eigenvalues --  -19.63767 -19.63111 -19.62889 -10.63272 -10.58509
 Alpha  occ. eigenvalues --  -10.57625 -10.57487 -10.57406 -10.52540 -10.52533
 Alpha  occ. eigenvalues --  -10.52473 -10.52431 -10.52235  -1.19968  -1.16296
 Alpha  occ. eigenvalues --   -1.13652  -0.90347  -0.89459  -0.86671  -0.83906
 Alpha  occ. eigenvalues --   -0.74462  -0.73896  -0.72394  -0.69780  -0.65873
 Alpha  occ. eigenvalues --   -0.64453  -0.59462  -0.57355  -0.56898  -0.55459
 Alpha  occ. eigenvalues --   -0.53973  -0.52745  -0.51170  -0.50825  -0.49823
 Alpha  occ. eigenvalues --   -0.48365  -0.47012  -0.45699  -0.45234  -0.44136
 Alpha  occ. eigenvalues --   -0.42622  -0.41370  -0.40333  -0.39659  -0.39355
 Alpha  occ. eigenvalues --   -0.38706  -0.37674  -0.37225  -0.34749  -0.32634
 Alpha  occ. eigenvalues --   -0.31934
 Alpha virt. eigenvalues --    0.00457   0.01254   0.01320   0.01569   0.02616
 Alpha virt. eigenvalues --    0.02932   0.03064   0.03871   0.04150   0.04866
 Alpha virt. eigenvalues --    0.05080   0.05294   0.05939   0.06574   0.07616

 Mulliken charges:
               1
     1  C   -0.388969
     2  C   -0.257952
     3  C   -0.381712
     4  O   -0.398670
     5  O   -0.407769
     6  C   -0.107792
     7  O   -0.383325
     8  C   -0.363171
     9  C   -0.126084
    10  C    0.011403
    11  C   -0.192358
    12  C   -0.313149
    13  C   -0.237513
    14  H    0.199576
    15  H    0.173978
    16  H    0.233563
    17  H    0.231163
    18  H    0.179251
    19  H    0.172632
    20  H    0.146243
    21  H    0.204910
    22  H    0.163515
    23  H    0.182455
    24  H    0.175146
    25  H    0.185091
    26  H    0.300632
    27  H    0.223009
    28  H    0.145677
    29  H    0.261994
    30  H    0.202206
    31  H    0.166018
 Sum of Mulliken charges =  -0.00000

 Dipole moment (field-independent basis, Debye):
    X=              1.3370    Y=             -1.6260    Z=              4.6796  Tot=              5.1313
 Quadrupole moment (field-independent basis, Debye-Ang):
   XX=            -71.8001   YY=            -82.5777   ZZ=            -81.2493
   XY=              7.0983   XZ=             -0.5473   YZ=              1.0991

  Exact polarizability: 187.126   3.254 172.548  -0.063   0.736 168.285
 Approx polarizability: 148.421   2.044 141.619   0.506   0.084 142.908

                      1                      2                      3
                      A                      A                      A
 Frequencies --     64.4416                66.4173                78.2594
 Red. masses --      3.5617                 3.1564                 4.1543
 Frc consts  --      0.0087                 0.0082                 0.0150
 IR Inten    --      1.2498                 0.3465                 1.4391

                      4                      5                      6
                      A                      A                      A
 Frequencies --    147.8716               216.5920               250.3130
 Red. masses --      2.8465                 3.2023                 2.1010
 Frc consts  --      0.0367                 0.0885                 0.0776
 IR Inten    --      1.6044                 0.7894                 2.0126

                      7                      8                      9
                      A                      A                      A
 Frequencies --    252.0502               285.9794               324.6426
 Red. masses --      2.2106                 3.4686                 2.8351
 Frc consts  --      0.0827                 0.1671                 0.1760
 IR Inten    --     10.0778                 8.7344                 9.4685

                     10                     11                     12
                      A                      A                      A
 Frequencies --    366.5259               395.8897               425.4293
 Red. masses --      2.3459                 2.8831                 3.0184
 Frc consts  --      0.1857                 0.2662                 0.3219
 IR Inten    --      8.2337                 9.0752                 7.9997

                     13                     14                     15
                      A                      A                      A
 Frequencies --    447.6576               468.8564               479.3348
 Red. masses --      3.5620                 3.4172                 2.9499
 Frc consts  --      0.4206                 0.4426                 0.3993
 IR Inten    --      3.7142                 2.4053                 2.3249

                     16                     17                     18
                      A                      A                      A
 Frequencies --    531.9135               548.2301               598.3015
 Red. masses --      2.2039                 2.3101                 2.2182
 Frc consts  --      0.3674                 0.4091                 0.4678
 IR Inten    --      4.0965                 7.9257                 8.6177

                     19                     20                     21
                      A                      A                      A
 Frequencies --    649.7687               823.8305               835.6356
 Red. masses --      3.4738                 2.1317                 1.7710
 Frc consts  --      0.8641                 0.8524                 0.7286
 IR Inten    --      3.7754                 3.2726                 8.1398

                     22                     23                     24
                      A                      A                      A
 Frequencies --    862.5769               873.9181               881.3353
 Red. masses --      1.9056                 1.4515                 1.9298
 Frc consts  --      0.8353                 0.6531                 0.8832
 IR Inten    --     17.2040                12.0793                 9.5071

                     25                     26                     27
                      A                      A                      A
 Frequencies --    895.2586               933.5302               942.2852
 Red. masses --      2.3516                 2.4835                 2.3194
 Frc consts  --      1.1105                 1.2752                 1.2134
 IR Inten    --     17.8496                26.5991                87.0789

                     28                     29                     30
                      A                      A                      A
 Frequencies --    958.9279               984.1242              1000.0335
 Red. masses --      2.1662                 1.5018                 1.7048
 Frc consts  --      1.1736                 0.8570                 1.0045
 IR Inten    --     10.0853                 8.6823                45.2901

                     31                     32                     33
                      A                      A                      A
 Frequencies --   1003.4133              1048.9147              1057.3017
 Red. masses --      2.2654                 1.6826                 1.5335
 Frc consts  --      1.3439                 1.0907                 1.0100
 IR Inten    --     13.5718                21.9018                95.7579

                     34                     35                     36
                      A                      A                      A
 Frequencies --   1078.3391              1101.0822              1119.6159
 Red. masses --      3.0267                 2.5639                 3.9080
 Frc consts  --      2.0736                 1.8314                 2.8863
 IR Inten    --     31.7947                83.1764               286.4689

                     37                     38                     39
                      A                      A                      A
 Frequencies --   1143.3381              1154.2274              1168.8388
 Red. masses --      4.0155                 2.4679                 2.3362
 Frc consts  --      3.0927                 1.9371                 1.8805
 IR Inten    --    200.0087                10.8102                17.3707

                     40                     41                     42
                      A                      A                      A
 Frequencies --   1190.1628              1203.5302              1208.5571
 Red. masses --      2.1358                 1.6134                 2.2080
 Frc consts  --      1.7825                 1.3769                 1.9001
 IR Inten    --     14.8611                 2.0963               224.4426

                     43                     44                     45
                      A                      A                      A
 Frequencies --   1214.4715              1239.4021              1246.5832
 Red. masses --      1.5988                 1.6502                 1.6225
 Frc consts  --      1.3894                 1.4935                 1.4855
 IR Inten    --     62.2970                37.2590                22.5037

                     46                     47                     48
                      A                      A                      A
 Frequencies --   1280.2612              1309.3193              1314.2727
 Red. masses --      1.2263                 1.1728                 1.1918
 Frc consts  --      1.1842                 1.1845                 1.2129
 IR Inten    --      4.3081                21.9613                32.1475

                     49                     50                     51
                      A                      A                      A
 Frequencies --   1339.9308              1344.3886              1353.8553
 Red. masses --      1.3353                 1.2809                 1.3521
 Frc consts  --      1.4125                 1.3640                 1.4602
 IR Inten    --      8.0479                10.0931                 0.6981

                     52                     53                     54
                      A                      A                      A
 Frequencies --   1366.6255              1377.8525              1383.6532
 Red. masses --      1.4310                 1.3514                 1.4002
 Frc consts  --      1.5747                 1.5116                 1.5794
 IR Inten    --      0.2187                17.4112                 0.6338

                     55                     56                     57
                      A                      A                      A
 Frequencies --   1385.2271              1394.3837              1403.5477
 Red. masses --      1.5095                 1.2663                 1.3390
 Frc consts  --      1.7065                 1.4506                 1.5542
 IR Inten    --      3.9085                20.3007                17.6126

                     58                     59                     60
                      A                      A                      A
 Frequencies --   1416.3148              1419.4529              1442.2133
 Red. masses --      1.3721                 1.3457                 1.4027
 Frc consts  --      1.6216                 1.5975                 1.7190
 IR Inten    --      7.7101                16.9514                13.5306

                     61                     62                     63
                      A                      A                      A
 Frequencies --   1448.4392              1470.2680              1471.5357
 Red. masses --      1.4366                 1.1073                 1.0983
 Frc consts  --      1.7758                 1.4103                 1.4012
 IR Inten    --     68.3583                 3.7156                 6.8440

                     64                     65                     66
                      A                      A                      A
 Frequencies --   1474.3338              1485.6309              1489.4940
 Red. masses --      1.1145                 1.1239                 1.1230
 Frc consts  --      1.4274                 1.4615                 1.4679
 IR Inten    --     10.0560                16.1199                26.0919

                     67                     68                     69
                      A                      A                      A
 Frequencies --   1494.0647              1503.2397              1504.7424
 Red. masses --      1.0999                 1.0970                 1.0999
 Frc consts  --      1.4465                 1.4605                 1.4673
 IR Inten    --      1.6702                 5.2983                 6.8210

                     70                     71                     72
                      A                      A                      A
 Frequencies --   3028.1121              3032.7478              3035.7135
 Red. masses --      1.0818                 1.0710                 1.0697
 Frc consts  --      5.8446                 5.8038                 5.8082
 IR Inten    --     36.9925                89.6126                66.2342

                     73                     74                     75
                      A                      A                      A
 Frequencies --   3046.4961              3060.1432              3061.0718
 Red. masses --      1.0680                 1.0658                 1.0687
 Frc consts  --      5.8400                 5.8802                 5.8998
 IR Inten    --     46.7141                25.3634                22.3374

                     76                     77                     78
                      A                      A                      A
 Frequencies --   3069.0076              3070.8867              3072.8404
 Red. masses --      1.0619                 1.0612                 1.0623
 Frc consts  --      5.8929                 5.8964                 5.9097
 IR Inten    --     35.0421                54.9846                38.2528

                     79                     80                     81
                      A                      A                      A
 Frequencies --   3089.6188              3118.6396              3119.4723
 Red. masses --      1.0840                 1.0972                 1.0986
 Frc consts  --      6.0965                 6.2872                 6.2986
 IR Inten    --     53.0830                41.1984                40.0360

                     82                     83                     84
                      A                      A                      A
 Frequencies --   3121.7289              3124.5332              3126.9150
 Red. masses --      1.1010                 1.1033                 1.1041
 Frc consts  --      6.3219                 6.3462                 6.3606
 IR Inten    --     55.1535                59.2800                58.7890

                     85                     86                     87
                      A                      A                      A
 Frequencies --   3139.7704              3141.2530              3148.5172
 Red. masses --      1.0962                 1.0955                 1.0984
 Frc consts  --      6.3670                 6.3689                 6.4152
 IR Inten    --     45.4732                41.9635                33.2798

 - Thermochemistry -
 -------------------
 Temperature   298.150 Kelvin.  Pressure   1.00000 Atm.
 Atom     1 has atomic number  6 and mass  12.00000

 Molecular mass:   186.12559 amu.
 Principal axes and moments of inertia in atomic units:
                           1         2         3
     Eigenvalues --   990.901934277.540154733.20908
           X            0.99997   0.00768  -0.00019
           Y           -0.00768   0.99997   0.00171
           Z            0.00020  -0.00171   1.00000
 This molecule is an asymmetric top.
 Rotational symmetry number  1.
 Warning -- assumption of classical behavior for rotation
           may cause significant error
 Rotational temperatures (Kelvin)      0.08741     0.02025     0.01830
 Rotational constants (GHZ):           1.82131     0.42191     0.38129
 Zero-point vibrational energy     737188.1 (Joules/Mol)
                                  176.19218 (Kcal/Mol)
 Warning -- explicit consideration of  18 degrees of freedom as
           vibrations may cause significant error
 Vibrational temperatures:     92.72    95.56   112.60   212.75   311.63
          (Kelvin)            360.14   362.64   411.46   467.09   527.35
                              569.60   612.10   644.08   674.58   689.66
                              765.30   788.78   860.82   934.87  1185.31
                             1202.29  1241.06  1257.37  1268.04  1288.08
                             1343.14  1355.74  1379.68  1415.94  1438.83
                             1443.69  1509.15  1521.22  1551.49  1584.21
                             1610.88  1645.01  1660.68  1681.70  1712.38
                             1731.61  1738.84  1747.35  1783.22  1793.56
                             1842.01  1883.82  1890.95  1927.86  1934.28
                             1947.90  1966.27  1982.42  1990.77  1993.03
                             2006.21  2019.39  2037.76  2042.28  2075.02
                             2083.98  2115.39  2117.21  2121.24  2137.49
                             2143.05  2149.63  2162.83  2164.99  4356.78
                             4363.45  4367.71  4383.23  4402.86  4404.20
                             4415.62  4418.32  4421.13  4445.27  4487.03
                             4488.22  4491.47  4495.51  4498.93  4517.43
                             4519.56  4530.01

 Zero-point correction=                           0.280780 (Hartree/Particle)
 Thermal correction to Energy=                    0.292450
 Thermal correction to Enthalpy=                  0.293394
 Thermal correction to Gibbs Free Energy=         0.242895
 Sum of electronic and zero-point Energies=           -617.224864
 Sum of electronic and thermal Energies=              -617.213195
 Sum of electronic and thermal Enthalpies=            -617.212250
 Sum of electronic and thermal Free Energies=         -617.262749

                     E (Thermal)             CV                S
                      KCal/Mol        Cal/Mol-Kelvin    Cal/Mol-Kelvin
 Total                  183.515             46.801            106.283
 Electronic               0.000              0.000              0.000
 Translational            0.889              2.981             41.570
 Rotational               0.889              2.981             31.373
 Vibrational            181.737             40.839             33.340
 Vibration     1          0.597              1.971              4.316
 Vibration     2          0.598              1.970              4.257
 Vibration     3          0.600              1.964              3.934
 Vibration     4          0.617              1.905              2.699
 Vibration     5          0.645              1.816              1.987
 Vibration     6          0.663              1.762              1.728
 Vibration     7          0.664              1.759              1.716
 Vibration     8          0.684              1.700              1.498
 Vibration     9          0.709              1.626              1.287
 Vibration    10          0.739              1.541              1.094
 Vibration    11          0.763              1.479              0.978
 Vibration    12          0.787              1.415              0.874
 Vibration    13          0.807              1.366              0.803
 Vibration    14          0.826              1.319              0.741
 Vibration    15          0.836              1.296              0.712
 Vibration    16          0.887              1.179              0.583
 Vibration    17          0.903              1.144              0.548
 Vibration    18          0.956              1.035              0.453

 Optimization completed.
    -- Stationary point found.
 Normal termination of Gaussian 16 at Sun Mar 10 05:06:10 2019.
