 Gaussian 16, Revision B.01,
 Gaussian 16:  ES64L-G16RevB.01 20-Dec-2017

 ----------------------------------------------------------------------
 #M062X/6-311++G(2d,2p) opt=ModRedundant freq=noraman SCRF=(SMD,solvent
 =water)
 ----------------------------------------------------------------------

 -------------------------------
 4c1_b1_4e_4c1_PSI.inp_extract_5
 -------------------------------
 Symbolic Z-matrix:
 Charge =  0 Multiplicity = 1

 SCF Done:  E(RM062X) =  -617.505474649     A.U. after   12 cycles
 SCF Done:  E(RM062X) =  -617.507036750     A.U. after   10 cycles
 SCF Done:  E(RM062X) =  -617.507138559     A.U. after    9 cycles
 SCF Done:  E(RM062X) =  -617.507168388     A.U. after    8 cycles
 SCF Done:  E(RM062X) =  -617.507172081     A.U. after    8 cycles
 SCF Done:  E(RM062X) =  -617.507174093     A.U. after    8 cycles
 SCF Done:  E(RM062X) =  -617.507175210     A.U. after    8 cycles
 SCF Done:  E(RM062X) =  -617.507175560     A.U. after    7 cycles
 Optimization completed.
    -- Stationary point found.
 Normal termination of Gaussian 16 at Sun Mar 10 02:47:01 2019.

 ----------------------------------------------------------------------
 #N Geom=AllCheck Guess=TCheck SCRF=Check GenChk RM062X/6-311++G(2d,2p)
  Freq
 ----------------------------------------------------------------------

 Structure from the checkpoint file:  "4c1_b1_4e_4c1_PSI.inp_extract_5.chk"
 -------------------------------
 4c1_b1_4e_4c1_PSI.inp_extract_5
 -------------------------------
 Charge =  0 Multiplicity = 1

                         Standard orientation:
 ---------------------------------------------------------------------
 Center     Atomic      Atomic             Coordinates (Angstroms)
 Number     Number       Type             X           Y           Z
 ---------------------------------------------------------------------
      1          6           0       -3.573973    0.406224    0.889640
      2          6           0        1.613823   -0.603590    0.956360
      3          6           0        3.575889    0.408853   -0.866909
      4          8           0        2.838601   -1.279177    0.711223
      5          8           0       -1.565775   -0.454552   -0.966603
      6          6           0       -2.742777   -1.245067   -0.781598
      7          8           0       -0.016582    0.925170   -0.034733
      8          6           0       -3.920030   -0.377135   -0.374607
      9          6           0        2.244868    1.138177   -0.703319
     10          6           0       -1.182361    0.199027    0.234737
     11          6           0        3.893580   -0.372325    0.393824
     12          6           0        1.162172    0.157287   -0.289867
     13          6           0       -2.257708    1.158860    0.695827
     14          1           0       -4.371074    1.102787    1.145742
     15          1           0       -3.470085   -0.289625    1.726378
     16          1           0        1.732291    0.105964    1.784223
     17          1           0        0.900737   -1.370750    1.247347
     18          1           0        3.523587   -0.282634   -1.710458
     19          1           0        4.379495    1.117438   -1.067093
     20          1           0       -2.546966   -2.003094   -0.015002
     21          1           0       -2.918872   -1.749425   -1.728903
     22          1           0       -4.149386    0.312797   -1.189850
     23          1           0       -4.793837   -1.009838   -0.216570
     24          1           0        2.333333    1.896195    0.079929
     25          1           0        1.954009    1.641107   -1.625559
     26          1           0       -1.005321   -0.567856    0.997557
     27          1           0        4.789253   -0.978357    0.275482
     28          1           0        4.040383    0.311175    1.237709
     29          1           0        0.973144   -0.555238   -1.096519
     30          1           0       -2.368189    1.931184   -0.069009
     31          1           0       -1.933354    1.634780    1.620968
 ---------------------------------------------------------------------

 SCF Done:  E(RM062X) =  -617.507175560     A.U. after    1 cycles

 The electronic state is 1-A.
 Alpha  occ. eigenvalues --  -19.63903 -19.63190 -19.63023 -10.63290 -10.58384
 Alpha  occ. eigenvalues --  -10.57572 -10.57534 -10.57399 -10.52607 -10.52561
 Alpha  occ. eigenvalues --  -10.52529 -10.52469 -10.52252  -1.20141  -1.16375
 Alpha  occ. eigenvalues --   -1.13712  -0.90682  -0.89515  -0.86661  -0.83767
 Alpha  occ. eigenvalues --   -0.74838  -0.73536  -0.72379  -0.69438  -0.65397
 Alpha  occ. eigenvalues --   -0.64889  -0.59823  -0.57781  -0.57397  -0.55062
 Alpha  occ. eigenvalues --   -0.54318  -0.52483  -0.52102  -0.50777  -0.49895
 Alpha  occ. eigenvalues --   -0.48040  -0.46160  -0.45460  -0.45178  -0.44220
 Alpha  occ. eigenvalues --   -0.43648  -0.40955  -0.40152  -0.40053  -0.39221
 Alpha  occ. eigenvalues --   -0.38272  -0.37455  -0.37049  -0.36038  -0.32609
 Alpha  occ. eigenvalues --   -0.32006
 Alpha virt. eigenvalues --    0.00507   0.01268   0.01416   0.01493   0.02586
 Alpha virt. eigenvalues --    0.02838   0.02997   0.04028   0.04291   0.04716
 Alpha virt. eigenvalues --    0.04815   0.05143   0.05916   0.06145   0.07097

 Mulliken charges:
               1
     1  C   -0.412246
     2  C   -0.339602
     3  C   -0.379354
     4  O   -0.376761
     5  O   -0.405761
     6  C   -0.168413
     7  O   -0.360374
     8  C   -0.333302
     9  C   -0.254929
    10  C    0.135581
    11  C   -0.144167
    12  C   -0.191698
    13  C   -0.275057
    14  H    0.204980
    15  H    0.174823
    16  H    0.216734
    17  H    0.234385
    18  H    0.170551
    19  H    0.191235
    20  H    0.161403
    21  H    0.201651
    22  H    0.161849
    23  H    0.180390
    24  H    0.210277
    25  H    0.180724
    26  H    0.227239
    27  H    0.215532
    28  H    0.148747
    29  H    0.250385
    30  H    0.199266
    31  H    0.175912
 Sum of Mulliken charges =  -0.00000

 Dipole moment (field-independent basis, Debye):
    X=             -1.3651    Y=              0.1265    Z=              1.5399  Tot=              2.0617
 Quadrupole moment (field-independent basis, Debye-Ang):
   XX=            -64.4799   YY=            -83.8335   ZZ=            -80.2831
   XY=              8.9357   XZ=             -4.4085   YZ=              1.7658

  Exact polarizability: 188.589   2.463 170.480  -1.493   1.364 168.567
 Approx polarizability: 148.479   1.850 142.961  -0.907   0.873 140.876

 ******    1 imaginary frequencies (negative Signs) ******

                      1                      2                      3
                      A                      A                      A
 Frequencies --    -27.3614                57.2439                81.3312
 Red. masses --      3.3370                 3.8224                 3.8815
 Frc consts  --      0.0015                 0.0074                 0.0151
 IR Inten    --      1.7965                 2.7963                 3.1028

                      4                      5                      6
                      A                      A                      A
 Frequencies --    165.9948               183.6079               240.6928
 Red. masses --      2.9286                 3.4055                 2.2224
 Frc consts  --      0.0475                 0.0676                 0.0759
 IR Inten    --      5.5816                 0.7066                 9.5431

                      7                      8                      9
                      A                      A                      A
 Frequencies --    250.6124               277.8976               331.2092
 Red. masses --      2.1053                 3.6147                 2.5027
 Frc consts  --      0.0779                 0.1645                 0.1618
 IR Inten    --      4.8147                 1.8011                 5.4532

                     10                     11                     12
                      A                      A                      A
 Frequencies --    359.3673               382.7047               444.0306
 Red. masses --      2.4462                 2.7743                 3.8032
 Frc consts  --      0.1861                 0.2394                 0.4418
 IR Inten    --     14.4811                19.0146                 1.5505

                     13                     14                     15
                      A                      A                      A
 Frequencies --    450.1903               460.0897               486.9564
 Red. masses --      2.3020                 3.7237                 2.9739
 Frc consts  --      0.2749                 0.4644                 0.4155
 IR Inten    --      0.6745                 3.4019                 0.6906

                     16                     17                     18
                      A                      A                      A
 Frequencies --    512.8912               548.3251               592.4057
 Red. masses --      2.8289                 2.0827                 2.1456
 Frc consts  --      0.4385                 0.3689                 0.4436
 IR Inten    --      2.3675                17.2066                 2.5090

                     19                     20                     21
                      A                      A                      A
 Frequencies --    654.4110               832.2237               833.7679
 Red. masses --      3.1240                 2.2248                 1.7699
 Frc consts  --      0.7883                 0.9079                 0.7249
 IR Inten    --      5.0205                 2.6582                 8.2200

                     22                     23                     24
                      A                      A                      A
 Frequencies --    862.3306               879.1744               883.2057
 Red. masses --      1.9123                 1.3956                 1.9131
 Frc consts  --      0.8378                 0.6356                 0.8792
 IR Inten    --     14.3259                14.3052                 9.2909

                     25                     26                     27
                      A                      A                      A
 Frequencies --    902.1378               933.9645               946.0213
 Red. masses --      2.3633                 2.3924                 2.2451
 Frc consts  --      1.1332                 1.2295                 1.1838
 IR Inten    --     10.3883                52.5407                28.5858

                     28                     29                     30
                      A                      A                      A
 Frequencies --    958.5798               987.8975               996.9777
 Red. masses --      2.1191                 2.0080                 1.5124
 Frc consts  --      1.1473                 1.1546                 0.8857
 IR Inten    --     19.1912                40.5587                 9.7052

                     31                     32                     33
                      A                      A                      A
 Frequencies --   1006.1111              1054.8760              1058.0998
 Red. masses --      1.9816                 1.7404                 1.5303
 Frc consts  --      1.1819                 1.1410                 1.0095
 IR Inten    --     17.6106                18.8930                93.6410

                     34                     35                     36
                      A                      A                      A
 Frequencies --   1090.6845              1095.0042              1123.1767
 Red. masses --      3.0794                 2.5838                 4.1323
 Frc consts  --      2.1583                 1.8253                 3.0714
 IR Inten    --     40.0289                78.2528               299.5560

                     37                     38                     39
                      A                      A                      A
 Frequencies --   1147.6199              1153.4815              1173.5424
 Red. masses --      2.3998                 3.0998                 2.3621
 Frc consts  --      1.8621                 2.4300                 1.9167
 IR Inten    --     39.6558               123.4474                40.6515

                     40                     41                     42
                      A                      A                      A
 Frequencies --   1184.9145              1203.5560              1211.8356
 Red. masses --      2.1406                 1.5254                 1.6997
 Frc consts  --      1.7708                 1.3019                 1.4707
 IR Inten    --      4.8071                 5.2657               228.7922

                     43                     44                     45
                      A                      A                      A
 Frequencies --   1234.2170              1240.8843              1254.3413
 Red. masses --      2.8844                 1.6764                 1.5438
 Frc consts  --      2.5887                 1.5209                 1.4311
 IR Inten    --     69.0590                42.9601                72.7682

                     46                     47                     48
                      A                      A                      A
 Frequencies --   1279.8893              1305.6677              1314.4359
 Red. masses --      1.2352                 1.1713                 1.1912
 Frc consts  --      1.1922                 1.1765                 1.2125
 IR Inten    --      6.5570                12.6980                28.0000

                     49                     50                     51
                      A                      A                      A
 Frequencies --   1330.3431              1337.4801              1348.0122
 Red. masses --      1.2752                 1.2149                 1.3092
 Frc consts  --      1.3297                 1.2804                 1.4016
 IR Inten    --     11.4190                 4.9269                 4.6062

                     52                     53                     54
                      A                      A                      A
 Frequencies --   1364.4375              1368.3507              1384.7249
 Red. masses --      1.2750                 1.4496                 1.4638
 Frc consts  --      1.3985                 1.5991                 1.6537
 IR Inten    --     12.5426                 4.4532                 7.6463

                     55                     56                     57
                      A                      A                      A
 Frequencies --   1385.9702              1396.3712              1402.4949
 Red. masses --      1.4946                 1.2814                 1.5131
 Frc consts  --      1.6916                 1.4721                 1.7535
 IR Inten    --      5.0587                13.6886                14.9884

                     58                     59                     60
                      A                      A                      A
 Frequencies --   1414.1850              1420.8218              1438.8918
 Red. masses --      1.4455                 1.3287                 1.4441
 Frc consts  --      1.7033                 1.5804                 1.7616
 IR Inten    --      9.8053                10.1121                 1.5367

                     61                     62                     63
                      A                      A                      A
 Frequencies --   1448.6217              1469.8991              1472.4391
 Red. masses --      1.4279                 1.1120                 1.0951
 Frc consts  --      1.7655                 1.4155                 1.3989
 IR Inten    --     62.6669                 5.0827                 8.6691

                     64                     65                     66
                      A                      A                      A
 Frequencies --   1473.1488              1488.6396              1489.2927
 Red. masses --      1.1161                 1.1249                 1.1311
 Frc consts  --      1.4270                 1.4688                 1.4782
 IR Inten    --      9.7479                14.8110                26.4599

                     67                     68                     69
                      A                      A                      A
 Frequencies --   1497.8694              1504.9201              1506.1657
 Red. masses --      1.0830                 1.0963                 1.1003
 Frc consts  --      1.4316                 1.4629                 1.4707
 IR Inten    --      2.1701                 5.9323                 7.2521

                     70                     71                     72
                      A                      A                      A
 Frequencies --   3030.5870              3034.7748              3034.9542
 Red. masses --      1.0692                 1.0699                 1.0708
 Frc consts  --      5.7857                 5.8054                 5.8113
 IR Inten    --     38.5681                77.9947                52.5913

                     73                     74                     75
                      A                      A                      A
 Frequencies --   3040.2516              3059.7030              3061.0380
 Red. masses --      1.0826                 1.0655                 1.0687
 Frc consts  --      5.8956                 5.8773                 5.8998
 IR Inten    --     85.1436                18.3481                23.5090

                     76                     77                     78
                      A                      A                      A
 Frequencies --   3069.3514              3072.4954              3073.7661
 Red. masses --      1.0617                 1.0616                 1.0630
 Frc consts  --      5.8933                 5.9046                 5.9175
 IR Inten    --     39.5615                47.9542                25.2471

                     79                     80                     81
                      A                      A                      A
 Frequencies --   3078.0740              3118.1903              3118.8661
 Red. masses --      1.0815                 1.0997                 1.0978
 Frc consts  --      6.0372                 6.3001                 6.2916
 IR Inten    --     72.3228                45.7094                39.7929

                     82                     83                     84
                      A                      A                      A
 Frequencies --   3122.2926              3125.2778              3129.2380
 Red. masses --      1.1008                 1.1026                 1.1036
 Frc consts  --      6.3225                 6.3453                 6.3671
 IR Inten    --     57.8304                54.1423                52.4223

                     85                     86                     87
                      A                      A                      A
 Frequencies --   3139.9000              3142.6298              3149.4976
 Red. masses --      1.0961                 1.0957                 1.0953
 Frc consts  --      6.3671                 6.3759                 6.4011
 IR Inten    --     44.5702                39.5241                34.8251

 - Thermochemistry -
 -------------------
 Temperature   298.150 Kelvin.  Pressure   1.00000 Atm.
 Atom     1 has atomic number  6 and mass  12.00000

 Molecular mass:   186.12559 amu.
 Principal axes and moments of inertia in atomic units:
                           1         2         3
     Eigenvalues --   845.498795013.495385119.51613
           X            0.99995   0.00821  -0.00634
           Y           -0.00787   0.99864   0.05145
           Z            0.00676  -0.05140   0.99866
 This molecule is an asymmetric top.
 Rotational symmetry number  1.
 Warning -- assumption of classical behavior for rotation
           may cause significant error
 Rotational temperatures (Kelvin)      0.10244     0.01728     0.01692
 Rotational constants (GHZ):           2.13453     0.35998     0.35252
    1 imaginary frequencies ignored.
 Zero-point vibrational energy     736735.4 (Joules/Mol)
                                  176.08400 (Kcal/Mol)
 Warning -- explicit consideration of  17 degrees of freedom as
           vibrations may cause significant error
 Vibrational temperatures:     82.36   117.02   238.83   264.17   346.30
          (Kelvin)            360.58   399.83   476.54   517.05   550.63
                              638.86   647.72   661.97   700.62   737.94
                              788.92   852.34   941.55  1197.38  1199.61
                             1240.70  1264.94  1270.74  1297.98  1343.77
                             1361.11  1379.18  1421.36  1434.43  1447.57
                             1517.73  1522.37  1569.25  1575.47  1616.00
                             1651.17  1659.60  1688.47  1704.83  1731.65
                             1743.56  1775.76  1785.36  1804.72  1841.48
                             1878.56  1891.18  1914.07  1924.34  1939.49
                             1963.12  1968.75  1992.31  1994.10  2009.07
                             2017.88  2034.70  2044.25  2070.24  2084.24
                             2114.86  2118.51  2119.53  2141.82  2142.76
                             2155.10  2165.24  2167.04  4360.34  4366.36
                             4366.62  4374.24  4402.23  4404.15  4416.11
                             4420.64  4422.46  4428.66  4486.38  4487.35
                             4492.28  4496.58  4502.28  4517.62  4521.54
                             4531.42

 Zero-point correction=                           0.280608 (Hartree/Particle)
 Thermal correction to Energy=                    0.291533
 Thermal correction to Enthalpy=                  0.292477
 Thermal correction to Gibbs Free Energy=         0.243783
 Sum of electronic and zero-point Energies=           -617.226568
 Sum of electronic and thermal Energies=              -617.215642
 Sum of electronic and thermal Enthalpies=            -617.214698
 Sum of electronic and thermal Free Energies=         -617.263393

                     E (Thermal)             CV                S
                      KCal/Mol        Cal/Mol-Kelvin    Cal/Mol-Kelvin
 Total                  182.940             44.860            102.486
 Electronic               0.000              0.000              0.000
 Translational            0.889              2.981             41.570
 Rotational               0.889              2.981             31.451
 Vibrational            181.162             38.899             29.465
 Vibration     1          0.596              1.975              4.550
 Vibration     2          0.600              1.962              3.858
 Vibration     3          0.624              1.884              2.480
 Vibration     4          0.631              1.862              2.291
 Vibration     5          0.658              1.778              1.798
 Vibration     6          0.663              1.762              1.726
 Vibration     7          0.679              1.714              1.547
 Vibration     8          0.714              1.613              1.254
 Vibration     9          0.734              1.556              1.125
 Vibration    10          0.752              1.507              1.028
 Vibration    11          0.804              1.374              0.814
 Vibration    12          0.809              1.360              0.795
 Vibration    13          0.818              1.339              0.766
 Vibration    14          0.843              1.279              0.692
 Vibration    15          0.868              1.221              0.627
 Vibration    16          0.904              1.143              0.548
 Vibration    17          0.950              1.048              0.463

 Optimization completed.
    -- Stationary point found.
 Normal termination of Gaussian 16 at Sun Mar 10 03:49:03 2019.
