 Gaussian 16, Revision B.01,
 Gaussian 16:  ES64L-G16RevB.01 20-Dec-2017

 ----------------------------------------------------------------------
 #M062X/6-311++G(2d,2p) opt=ModRedundant freq=noraman SCRF=(SMD,solvent
 =water)
 ----------------------------------------------------------------------

 --------------------------------
 4c1_b1_4e_4c1_PSI.inp_extract_19
 --------------------------------
 Symbolic Z-matrix:
 Charge =  0 Multiplicity = 1

 SCF Done:  E(RM062X) =  -617.501493394     A.U. after   12 cycles
 SCF Done:  E(RM062X) =  -617.503012957     A.U. after   10 cycles
 SCF Done:  E(RM062X) =  -617.503264217     A.U. after   10 cycles
 SCF Done:  E(RM062X) =  -617.503364097     A.U. after    9 cycles
 SCF Done:  E(RM062X) =  -617.503373582     A.U. after    8 cycles
 SCF Done:  E(RM062X) =  -617.503374866     A.U. after    8 cycles
 SCF Done:  E(RM062X) =  -617.503375177     A.U. after    7 cycles
 SCF Done:  E(RM062X) =  -617.503375243     A.U. after    7 cycles
 Optimization completed.
    -- Stationary point found.
 Normal termination of Gaussian 16 at Sun Mar 10 05:00:15 2019.

 ----------------------------------------------------------------------
 #N Geom=AllCheck Guess=TCheck SCRF=Check GenChk RM062X/6-311++G(2d,2p)
  Freq
 ----------------------------------------------------------------------

 Structure from the checkpoint file:  "4c1_b1_4e_4c1_PSI.inp_extract_19.chk"
 --------------------------------
 4c1_b1_4e_4c1_PSI.inp_extract_19
 --------------------------------
 Charge =  0 Multiplicity = 1

                         Standard orientation:
 ---------------------------------------------------------------------
 Center     Atomic      Atomic             Coordinates (Angstroms)
 Number     Number       Type             X           Y           Z
 ---------------------------------------------------------------------
      1          6           0        3.650918   -0.481450    0.575544
      2          6           0       -2.200475   -1.086009   -0.724624
      3          6           0       -2.852866    1.200973    0.835323
      4          8           0       -3.544810   -0.774872   -0.399722
      5          8           0        1.339605    0.607113   -0.722639
      6          6           0        2.469474    1.445915   -0.471328
      7          8           0        0.040634   -1.119240   -0.004895
      8          6           0        3.753729    0.636474   -0.459333
      9          6           0       -1.381220    0.891114    0.550279
     10          6           0        1.176700   -0.366822    0.298772
     11          6           0       -3.735423    0.633054   -0.261105
     12          6           0       -1.250463   -0.614563    0.366721
     13          6           0        2.375304   -1.292332    0.347876
     14          1           0        4.523343   -1.132220    0.533474
     15          1           0        3.622424   -0.042439    1.576427
     16          1           0       -1.920508   -0.609448   -1.671841
     17          1           0       -2.139198   -2.166646   -0.839836
     18          1           0       -3.149234    0.766761    1.792548
     19          1           0       -3.006542    2.278189    0.897698
     20          1           0        2.330007    1.953516    0.490132
     21          1           0        2.470208    2.195186   -1.259748
     22          1           0        3.912468    0.211539   -1.453057
     23          1           0        4.593030    1.297289   -0.240696
     24          1           0       -1.075628    1.398463   -0.366258
     25          1           0       -0.754334    1.251955    1.364064
     26          1           0        1.061159    0.150988    1.257906
     27          1           0       -4.790574    0.776247   -0.038509
     28          1           0       -3.509063    1.117307   -1.217690
     29          1           0       -1.535432   -1.100507    1.305714
     30          1           0        2.426223   -1.826293   -0.604055
     31          1           0        2.224157   -2.022023    1.143019
 ---------------------------------------------------------------------

 SCF Done:  E(RM062X) =  -617.503375243     A.U. after    1 cycles

 The electronic state is 1-A.
 Alpha  occ. eigenvalues --  -19.63667 -19.63156 -19.62837 -10.63264 -10.58537
 Alpha  occ. eigenvalues --  -10.57568 -10.57472 -10.57421 -10.52661 -10.52614
 Alpha  occ. eigenvalues --  -10.52510 -10.52388 -10.52221  -1.19840  -1.16423
 Alpha  occ. eigenvalues --   -1.13566  -0.90569  -0.89412  -0.87096  -0.83611
 Alpha  occ. eigenvalues --   -0.74851  -0.73423  -0.72305  -0.69493  -0.65250
 Alpha  occ. eigenvalues --   -0.65132  -0.59495  -0.57807  -0.56237  -0.55442
 Alpha  occ. eigenvalues --   -0.54465  -0.52613  -0.52052  -0.50894  -0.49719
 Alpha  occ. eigenvalues --   -0.47891  -0.46247  -0.45771  -0.45390  -0.44499
 Alpha  occ. eigenvalues --   -0.43245  -0.40881  -0.40204  -0.39842  -0.39280
 Alpha  occ. eigenvalues --   -0.38538  -0.37372  -0.36745  -0.34942  -0.32501
 Alpha  occ. eigenvalues --   -0.32313
 Alpha virt. eigenvalues --    0.00484   0.01261   0.01352   0.01491   0.02643
 Alpha virt. eigenvalues --    0.02916   0.03023   0.03865   0.04088   0.04787
 Alpha virt. eigenvalues --    0.05088   0.05424   0.05993   0.06212   0.07280

 Mulliken charges:
               1
     1  C   -0.399414
     2  C   -0.231955
     3  C   -0.535591
     4  O   -0.399810
     5  O   -0.398359
     6  C   -0.118625
     7  O   -0.415035
     8  C   -0.396577
     9  C   -0.178124
    10  C    0.122383
    11  C   -0.211726
    12  C   -0.094113
    13  C   -0.270648
    14  H    0.203088
    15  H    0.172322
    16  H    0.196867
    17  H    0.211656
    18  H    0.179048
    19  H    0.176087
    20  H    0.162318
    21  H    0.198205
    22  H    0.161916
    23  H    0.182129
    24  H    0.247857
    25  H    0.177010
    26  H    0.252598
    27  H    0.217244
    28  H    0.157428
    29  H    0.258888
    30  H    0.195959
    31  H    0.176975
 Sum of Mulliken charges =  -0.00000

 Dipole moment (field-independent basis, Debye):
    X=              2.8219    Y=              3.3427    Z=              2.6139  Tot=              5.0960
 Quadrupole moment (field-independent basis, Debye-Ang):
   XX=            -76.6217   YY=            -79.2714   ZZ=            -79.3588
   XY=             -5.9868   XZ=              0.2793   YZ=             -0.3744

  Exact polarizability: 185.851   0.205 174.568  -2.187   0.186 167.897
 Approx polarizability: 147.399   1.004 144.345  -1.810  -0.005 141.330

 ******    1 imaginary frequencies (negative Signs) ******

                      1                      2                      3
                      A                      A                      A
 Frequencies --    -60.6493                63.1885                80.0849
 Red. masses --      3.6190                 3.8578                 3.8513
 Frc consts  --      0.0078                 0.0091                 0.0146
 IR Inten    --      1.2276                 3.4462                 1.1156

                      4                      5                      6
                      A                      A                      A
 Frequencies --    152.6146               190.0427               244.7243
 Red. masses --      2.8394                 3.2818                 2.3000
 Frc consts  --      0.0390                 0.0698                 0.0812
 IR Inten    --      2.5630                 3.6968                 5.5712

                      7                      8                      9
                      A                      A                      A
 Frequencies --    253.3784               274.8135               313.2175
 Red. masses --      2.1711                 3.5572                 3.0750
 Frc consts  --      0.0821                 0.1583                 0.1777
 IR Inten    --      8.4707                 2.5155                 1.0928

                     10                     11                     12
                      A                      A                      A
 Frequencies --    357.7269               380.7410               434.6943
 Red. masses --      2.1042                 2.5347                 3.6860
 Frc consts  --      0.1586                 0.2165                 0.4104
 IR Inten    --     10.3540                18.2475                 3.5338

                     13                     14                     15
                      A                      A                      A
 Frequencies --    453.4454               457.5862               484.8178
 Red. masses --      3.1511                 2.5692                 3.1709
 Frc consts  --      0.3817                 0.3170                 0.4391
 IR Inten    --      4.5467                 1.5969                 1.5497

                     16                     17                     18
                      A                      A                      A
 Frequencies --    526.8669               538.5466               603.5793
 Red. masses --      2.4806                 2.3073                 2.3582
 Frc consts  --      0.4057                 0.3943                 0.5062
 IR Inten    --      0.3509                 8.8575                 9.3741

                     19                     20                     21
                      A                      A                      A
 Frequencies --    642.8224               824.3323               835.1955
 Red. masses --      2.9930                 2.1612                 1.7905
 Frc consts  --      0.7287                 0.8653                 0.7359
 IR Inten    --      8.4104                 3.8073                10.2347

                     22                     23                     24
                      A                      A                      A
 Frequencies --    863.2664               877.8164               883.4600
 Red. masses --      1.9040                 1.5161                 1.7822
 Frc consts  --      0.8360                 0.6883                 0.8196
 IR Inten    --     15.8366                11.9114                14.7599

                     25                     26                     27
                      A                      A                      A
 Frequencies --    899.3121               932.6923               946.5477
 Red. masses --      2.3132                 2.4546                 2.1004
 Frc consts  --      1.1023                 1.2581                 1.1087
 IR Inten    --     10.1538                47.8934                57.1807

                     28                     29                     30
                      A                      A                      A
 Frequencies --    958.7301               983.6469              1000.0252
 Red. masses --      2.1526                 1.8404                 1.6221
 Frc consts  --      1.1657                 1.0492                 0.9558
 IR Inten    --      4.5448                40.1206                 8.7958

                     31                     32                     33
                      A                      A                      A
 Frequencies --   1006.5401              1056.5580              1061.6803
 Red. masses --      2.0784                 1.5477                 1.7377
 Frc consts  --      1.2407                 1.0180                 1.1540
 IR Inten    --      9.0079               106.6761                 7.7295

                     34                     35                     36
                      A                      A                      A
 Frequencies --   1081.4897              1096.8021              1118.0952
 Red. masses --      3.3156                 2.5279                 3.9649
 Frc consts  --      2.2848                 1.7917                 2.9204
 IR Inten    --     53.7946                52.6652               285.7081

                     37                     38                     39
                      A                      A                      A
 Frequencies --   1150.2820              1171.8921              1177.3650
 Red. masses --      2.2791                 2.1471                 2.2067
 Frc consts  --      1.7767                 1.7374                 1.8022
 IR Inten    --      4.8681               111.7687                 2.1691

                     40                     41                     42
                      A                      A                      A
 Frequencies --   1186.0489              1199.6215              1203.7924
 Red. masses --      2.2883                 1.9128                 1.5733
 Frc consts  --      1.8966                 1.6218                 1.3433
 IR Inten    --     30.8648                78.1422                82.6633

                     43                     44                     45
                      A                      A                      A
 Frequencies --   1231.2710              1239.1237              1252.0257
 Red. masses --      2.8557                 1.6862                 1.6055
 Frc consts  --      2.5508                 1.5254                 1.4828
 IR Inten    --    295.3107                49.0830                24.5251

                     46                     47                     48
                      A                      A                      A
 Frequencies --   1279.8605              1297.3499              1313.8362
 Red. masses --      1.2331                 1.1704                 1.2019
 Frc consts  --      1.1900                 1.1606                 1.2224
 IR Inten    --      3.4387                12.9820                29.3928

                     49                     50                     51
                      A                      A                      A
 Frequencies --   1330.7329              1344.2816              1352.6679
 Red. masses --      1.3024                 1.2745                 1.2719
 Frc consts  --      1.3588                 1.3570                 1.3711
 IR Inten    --      8.9299                 9.4417                12.7325

                     52                     53                     54
                      A                      A                      A
 Frequencies --   1356.9910              1367.0933              1379.6096
 Red. masses --      1.2392                 1.4280                 1.4218
 Frc consts  --      1.3444                 1.5725                 1.5944
 IR Inten    --      5.4708                 0.2381                13.4345

                     55                     56                     57
                      A                      A                      A
 Frequencies --   1384.6000              1391.2166              1409.5610
 Red. masses --      1.4922                 1.2744                 1.4070
 Frc consts  --      1.6854                 1.4533                 1.6471
 IR Inten    --      7.0720                15.4323                12.9476

                     58                     59                     60
                      A                      A                      A
 Frequencies --   1414.8554              1421.1265              1430.6647
 Red. masses --      1.4291                 1.3632                 1.4909
 Frc consts  --      1.6856                 1.6221                 1.7980
 IR Inten    --      7.1240                17.8831                13.6740

                     61                     62                     63
                      A                      A                      A
 Frequencies --   1445.1801              1470.2715              1473.0469
 Red. masses --      1.5193                 1.0971                 1.1291
 Frc consts  --      1.8695                 1.3972                 1.4435
 IR Inten    --     51.8584                10.2538                 3.2666

                     64                     65                     66
                      A                      A                      A
 Frequencies --   1474.5660              1488.5647              1490.4461
 Red. masses --      1.0896                 1.1297                 1.1207
 Frc consts  --      1.3959                 1.4749                 1.4667
 IR Inten    --     11.5210                11.5892                24.5033

                     67                     68                     69
                      A                      A                      A
 Frequencies --   1497.5537              1503.9852              1506.3252
 Red. masses --      1.0850                 1.0973                 1.1056
 Frc consts  --      1.4337                 1.4624                 1.4780
 IR Inten    --      1.1115                 5.8194                 8.4669

                     70                     71                     72
                      A                      A                      A
 Frequencies --   3030.8425              3034.2159              3038.3952
 Red. masses --      1.0700                 1.0706                 1.0697
 Frc consts  --      5.7913                 5.8072                 5.8183
 IR Inten    --     26.4166                52.4224                82.5715

                     73                     74                     75
                      A                      A                      A
 Frequencies --   3042.5156              3045.5215              3059.9327
 Red. masses --      1.0824                 1.0814                 1.0685
 Frc consts  --      5.9033                 5.9095                 5.8947
 IR Inten    --     85.3131                83.5523                24.6108

                     76                     77                     78
                      A                      A                      A
 Frequencies --   3068.5447              3071.6743              3073.3859
 Red. masses --      1.0617                 1.0618                 1.0639
 Frc consts  --      5.8899                 5.9027                 5.9209
 IR Inten    --     38.9585                51.2000                27.8212

                     79                     80                     81
                      A                      A                      A
 Frequencies --   3082.2717              3117.6863              3120.9640
 Red. masses --      1.0606                 1.0971                 1.1016
 Frc consts  --      5.9369                 6.2831                 6.3220
 IR Inten    --     40.1658                39.8725                60.8766

                     82                     83                     84
                      A                      A                      A
 Frequencies --   3125.0655              3128.7800              3135.6313
 Red. masses --      1.1001                 1.1035                 1.1040
 Frc consts  --      6.3299                 6.3644                 6.3954
 IR Inten    --     41.4323                47.2010                50.5581

                     85                     86                     87
                      A                      A                      A
 Frequencies --   3137.7871              3140.7336              3141.4847
 Red. masses --      1.0968                 1.0959                 1.0973
 Frc consts  --      6.3627                 6.3691                 6.3804
 IR Inten    --     40.6083                39.4498                40.2515

 - Thermochemistry -
 -------------------
 Temperature   298.150 Kelvin.  Pressure   1.00000 Atm.
 Atom     1 has atomic number  6 and mass  12.00000

 Molecular mass:   186.12559 amu.
 Principal axes and moments of inertia in atomic units:
                           1         2         3
     Eigenvalues --   868.086154672.923015068.16377
           X            0.99996  -0.00838   0.00024
           Y            0.00838   0.99995   0.00511
           Z           -0.00028  -0.00511   0.99999
 This molecule is an asymmetric top.
 Rotational symmetry number  1.
 Warning -- assumption of classical behavior for rotation
           may cause significant error
 Rotational temperatures (Kelvin)      0.09978     0.01854     0.01709
 Rotational constants (GHZ):           2.07899     0.38621     0.35609
    1 imaginary frequencies ignored.
 Zero-point vibrational energy     736363.3 (Joules/Mol)
                                  175.99504 (Kcal/Mol)
 Warning -- explicit consideration of  17 degrees of freedom as
           vibrations may cause significant error
 Vibrational temperatures:     90.91   115.22   219.58   273.43   352.10
          (Kelvin)            364.56   395.40   450.65   514.69   547.80
                              625.43   652.41   658.36   697.54   758.04
                              774.85   868.42   924.88  1186.03  1201.66
                             1242.05  1262.98  1271.10  1293.91  1341.94
                             1361.87  1379.40  1415.25  1438.81  1448.19
                             1520.15  1527.52  1556.02  1578.05  1608.69
                             1655.00  1686.09  1693.97  1706.46  1725.99
                             1731.99  1771.52  1782.82  1801.39  1841.43
                             1866.60  1890.32  1914.63  1934.12  1946.19
                             1952.41  1966.94  1984.95  1992.13  2001.65
                             2028.04  2035.66  2044.68  2058.41  2079.29
                             2115.39  2119.39  2121.57  2141.71  2144.42
                             2154.65  2163.90  2167.27  4360.71  4365.56
                             4371.57  4377.50  4381.83  4402.56  4414.95
                             4419.45  4421.92  4434.70  4485.66  4490.37
                             4496.27  4501.62  4511.47  4514.58  4518.82
                             4519.90

 Zero-point correction=                           0.280466 (Hartree/Particle)
 Thermal correction to Energy=                    0.291422
 Thermal correction to Enthalpy=                  0.292366
 Thermal correction to Gibbs Free Energy=         0.243681
 Sum of electronic and zero-point Energies=           -617.222909
 Sum of electronic and thermal Energies=              -617.211953
 Sum of electronic and thermal Enthalpies=            -617.211009
 Sum of electronic and thermal Free Energies=         -617.259694

                     E (Thermal)             CV                S
                      KCal/Mol        Cal/Mol-Kelvin    Cal/Mol-Kelvin
 Total                  182.870             44.938            102.466
 Electronic               0.000              0.000              0.000
 Translational            0.889              2.981             41.570
 Rotational               0.889              2.981             31.398
 Vibrational            181.093             38.977             29.498
 Vibration     1          0.597              1.972              4.355
 Vibration     2          0.600              1.963              3.889
 Vibration     3          0.619              1.900              2.639
 Vibration     4          0.633              1.854              2.227
 Vibration     5          0.660              1.772              1.768
 Vibration     6          0.665              1.757              1.707
 Vibration     7          0.677              1.720              1.566
 Vibration     8          0.701              1.648              1.345
 Vibration     9          0.733              1.559              1.132
 Vibration    10          0.750              1.511              1.036
 Vibration    11          0.795              1.395              0.843
 Vibration    12          0.812              1.353              0.785
 Vibration    13          0.816              1.344              0.773
 Vibration    14          0.841              1.284              0.697
 Vibration    15          0.882              1.191              0.594
 Vibration    16          0.894              1.165              0.568
 Vibration    17          0.962              1.024              0.444

 Optimization completed.
    -- Stationary point found.
 Normal termination of Gaussian 16 at Sun Mar 10 06:13:13 2019.
