 Gaussian 16, Revision A.03,
 Gaussian 16:  ES64L-G16RevA.03 25-Dec-2016

 ----------------------------------------------------------------------
 #M062X/6-311++G(2d,2p) opt=ModRedundant freq=noraman SCRF=(Solvent=Wat
 er)
 ----------------------------------------------------------------------

 ---------------------------
 D_1a_4a_L_PSI.inp_extract_2
 ---------------------------
 Symbolic Z-matrix:
 Charge =  0 Multiplicity = 1

 SCF Done:  E(RM062X) =  -617.501274170     A.U. after   13 cycles
 SCF Done:  E(RM062X) =  -617.502990136     A.U. after   11 cycles
 SCF Done:  E(RM062X) =  -617.503349120     A.U. after   11 cycles
 SCF Done:  E(RM062X) =  -617.503465258     A.U. after    9 cycles
 SCF Done:  E(RM062X) =  -617.503477199     A.U. after    9 cycles
 SCF Done:  E(RM062X) =  -617.503479862     A.U. after    8 cycles
 Optimization completed.
    -- Stationary point found.
 Normal termination of Gaussian 16 at Sun Nov  4 21:57:40 2018.

 ----------------------------------------------------------------------
 #N Geom=AllCheck Guess=TCheck SCRF=Check GenChk RM062X/6-311++G(2d,2p)
  Freq
 ----------------------------------------------------------------------

 Structure from the checkpoint file:  "D_1a_4a_L_PSI.inp_extract_2.chk"
 ---------------------------
 D_1a_4a_L_PSI.inp_extract_2
 ---------------------------
 Charge =  0 Multiplicity = 1

                         Standard orientation:
 ---------------------------------------------------------------------
 Center     Atomic      Atomic             Coordinates (Angstroms)
 Number     Number       Type             X           Y           Z
 ---------------------------------------------------------------------
      1          6           0       -3.037810    0.894596   -0.746666
      2          6           0       -1.131580   -0.552260    0.858824
      3          6           0        1.691967    0.282327    1.344688
      4          6           0       -2.858108   -0.605472   -0.969745
      5          6           0        2.966801    0.848178   -0.721544
      6          8           0        2.426171   -0.294251   -1.372355
      7          6           0       -1.746497    1.481520   -0.203208
      8          6           0        1.208596   -0.976225    0.626091
      9          6           0        2.016048    1.382830    0.338003
     10          6           0        2.193766   -1.356711   -0.466201
     11          8           0       -1.341799    0.837414    1.005463
     12          8           0       -0.057881   -0.813686   -0.008509
     13          6           0       -2.374920   -1.250389    0.327544
     14          1           0       -3.842819    1.069579   -0.028842
     15          1           0       -3.302244    1.404076   -1.673786
     16          1           0        2.594260    0.013725    1.900587
     17          1           0       -3.790225   -1.066607   -1.294303
     18          1           0       -2.121030   -0.770595   -1.758582
     19          1           0       -0.952599    1.383499   -0.949146
     20          1           0       -1.854982    2.534362    0.048111
     21          1           0        1.098319    1.725296   -0.141273
     22          1           0        2.471071    2.239439    0.835891
     23          1           0        3.136983   -1.663210    0.001409
     24          1           0        1.802505   -2.187117   -1.050477
     25          1           0       -3.151696   -1.165083    1.090009
     26          1           0       -2.150551   -2.307870    0.194101
     27          1           0       -0.889395   -0.907218    1.863066
     28          1           0        3.927123    0.579777   -0.262824
     29          1           0        3.152270    1.584062   -1.501100
     30          1           0        0.950178    0.616027    2.068503
     31          1           0        1.141318   -1.808332    1.335159
 ---------------------------------------------------------------------

 SCF Done:  E(RM062X) =  -617.503479862     A.U. after    1 cycles

 The electronic state is 1-A.
 Alpha  occ. eigenvalues --  -19.63006 -19.62847 -19.62762 -10.63426 -10.58905
 Alpha  occ. eigenvalues --  -10.58104 -10.57867 -10.57678 -10.53051 -10.53008
 Alpha  occ. eigenvalues --  -10.52966 -10.52812 -10.52803  -1.19855  -1.16411
 Alpha  occ. eigenvalues --   -1.13208  -0.90846  -0.89526  -0.87283  -0.84551
 Alpha  occ. eigenvalues --   -0.74557  -0.73760  -0.72518  -0.71849  -0.66270
 Alpha  occ. eigenvalues --   -0.62476  -0.60085  -0.57974  -0.57349  -0.55361
 Alpha  occ. eigenvalues --   -0.54293  -0.52887  -0.52569  -0.51063  -0.49636
 Alpha  occ. eigenvalues --   -0.47635  -0.46750  -0.46545  -0.45537  -0.45021
 Alpha  occ. eigenvalues --   -0.43579  -0.42796  -0.41293  -0.40080  -0.39432
 Alpha  occ. eigenvalues --   -0.38217  -0.37490  -0.36276  -0.34428  -0.33235
 Alpha  occ. eigenvalues --   -0.32086
 Alpha virt. eigenvalues --   -0.00172   0.00828   0.00890   0.01067   0.02293
 Alpha virt. eigenvalues --    0.02568   0.02771   0.03155   0.03327   0.04768
 Alpha virt. eigenvalues --    0.04874   0.04983   0.05429   0.05968   0.07162

 Mulliken charges:
               1
     1  C   -0.449362
     2  C   -0.052848
     3  C   -0.331217
     4  C   -0.269266
     5  C   -0.250125
     6  O   -0.303669
     7  C   -0.090665
     8  C    0.058473
     9  C   -0.327577
    10  C   -0.355332
    11  O   -0.269588
    12  O   -0.282053
    13  C   -0.467780
    14  H    0.162818
    15  H    0.172928
    16  H    0.237087
    17  H    0.185358
    18  H    0.171663
    19  H    0.155662
    20  H    0.217342
    21  H    0.143456
    22  H    0.176615
    23  H    0.184773
    24  H    0.199229
    25  H    0.193777
    26  H    0.180277
    27  H    0.234896
    28  H    0.150039
    29  H    0.195862
    30  H    0.193439
    31  H    0.235786
 Sum of Mulliken charges =  -0.00000

 Dipole moment (field-independent basis, Debye):
    X=             -0.0061    Y=             -0.4566    Z=              1.8019  Tot=              1.8589
 Quadrupole moment (field-independent basis, Debye-Ang):
   XX=            -73.0609   YY=            -75.6741   ZZ=            -84.3265
   XY=              1.4023   XZ=              7.0593   YZ=             -4.9872

  Exact polarizability: 167.729   0.166 163.229   2.023  -3.116 152.903
 Approx polarizability: 144.007  -0.795 144.738   1.137  -1.827 143.027

                      1                      2                      3
                      A                      A                      A
 Frequencies --     45.4305                76.5358                95.3079
 Red. masses --      3.6685                 3.9868                 3.6673
 Frc consts  --      0.0045                 0.0138                 0.0196
 IR Inten    --      0.7668                 2.2098                 6.5392

                      4                      5                      6
                      A                      A                      A
 Frequencies --    139.4169               183.0786               236.9125
 Red. masses --      3.4704                 3.0761                 3.0435
 Frc consts  --      0.0397                 0.0607                 0.1006
 IR Inten    --      1.3892                 3.5183                 2.8374

                      7                      8                      9
                      A                      A                      A
 Frequencies --    271.0275               278.3036               332.9777
 Red. masses --      3.2931                 2.2170                 2.0542
 Frc consts  --      0.1425                 0.1012                 0.1342
 IR Inten    --      3.1852                 1.4573                 0.2698

                     10                     11                     12
                      A                      A                      A
 Frequencies --    380.6667               400.1478               435.3974
 Red. masses --      2.5105                 1.9776                 2.3240
 Frc consts  --      0.2143                 0.1866                 0.2596
 IR Inten    --      8.0559                10.8835                 8.1305

                     13                     14                     15
                      A                      A                      A
 Frequencies --    442.0600               486.2258               524.8535
 Red. masses --      3.2942                 3.8142                 2.2225
 Frc consts  --      0.3793                 0.5313                 0.3607
 IR Inten    --      6.9625                 8.1180                 4.9717

                     16                     17                     18
                      A                      A                      A
 Frequencies --    534.3556               599.6193               670.8969
 Red. masses --      2.1374                 3.8320                 2.7054
 Frc consts  --      0.3596                 0.8118                 0.7175
 IR Inten    --      3.7685                17.3814                 5.3798

                     19                     20                     21
                      A                      A                      A
 Frequencies --    737.6788               834.5265               836.5452
 Red. masses --      2.4496                 3.0278                 1.6839
 Frc consts  --      0.7854                 1.2424                 0.6943
 IR Inten    --      1.2581                 8.5925                 2.1753

                     22                     23                     24
                      A                      A                      A
 Frequencies --    849.6529               874.9151               878.3334
 Red. masses --      3.3236                 1.9190                 1.7645
 Frc consts  --      1.4136                 0.8655                 0.8020
 IR Inten    --      5.7981                 5.8224                10.0472

                     25                     26                     27
                      A                      A                      A
 Frequencies --    896.9615               905.0669               914.5032
 Red. masses --      2.4842                 2.4905                 2.3257
 Frc consts  --      1.1775                 1.2020                 1.1459
 IR Inten    --     31.2396                 1.9603                62.0564

                     28                     29                     30
                      A                      A                      A
 Frequencies --    932.2421               951.0036              1007.7858
 Red. masses --      1.9658                 1.5761                 1.9722
 Frc consts  --      1.0066                 0.8398                 1.1802
 IR Inten    --      8.3511                 9.1097                79.4284

                     31                     32                     33
                      A                      A                      A
 Frequencies --   1033.0028              1038.3391              1061.0793
 Red. masses --      1.9173                 2.2968                 1.7561
 Frc consts  --      1.2054                 1.4590                 1.1649
 IR Inten    --     69.7360                20.6331                43.0553

                     34                     35                     36
                      A                      A                      A
 Frequencies --   1063.9404              1070.1652              1077.0541
 Red. masses --      2.1809                 1.8088                 2.5403
 Frc consts  --      1.4545                 1.2205                 1.7363
 IR Inten    --    118.8736                26.5262               148.6960

                     37                     38                     39
                      A                      A                      A
 Frequencies --   1104.9623              1144.0387              1157.3407
 Red. masses --      1.6171                 2.5092                 3.1005
 Frc consts  --      1.1633                 1.9350                 2.4468
 IR Inten    --     53.0155                31.4694               214.1441

                     40                     41                     42
                      A                      A                      A
 Frequencies --   1175.1428              1184.9762              1210.2374
 Red. masses --      3.0418                 2.6244                 1.4029
 Frc consts  --      2.4749                 2.1712                 1.2106
 IR Inten    --    104.9427                40.5872                19.8643

                     43                     44                     45
                      A                      A                      A
 Frequencies --   1225.9085              1234.0012              1246.9262
 Red. masses --      1.3381                 1.6182                 1.7972
 Frc consts  --      1.1848                 1.4518                 1.6464
 IR Inten    --     53.6810                37.6978                44.6854

                     46                     47                     48
                      A                      A                      A
 Frequencies --   1287.4782              1304.5105              1320.1061
 Red. masses --      1.2149                 1.1297                 1.1530
 Frc consts  --      1.1866                 1.1327                 1.1839
 IR Inten    --     21.4090                 7.9576                 8.0510

                     49                     50                     51
                      A                      A                      A
 Frequencies --   1339.3248              1358.6557              1363.3458
 Red. masses --      1.2215                 1.3502                 1.4043
 Frc consts  --      1.2910                 1.4685                 1.5379
 IR Inten    --     14.7673                13.0197                11.7429

                     52                     53                     54
                      A                      A                      A
 Frequencies --   1371.3800              1379.7348              1387.2286
 Red. masses --      1.4517                 1.3546                 1.5232
 Frc consts  --      1.6086                 1.5194                 1.7270
 IR Inten    --      2.5443                30.8570                 4.2898

                     55                     56                     57
                      A                      A                      A
 Frequencies --   1391.7621              1398.3442              1401.1482
 Red. masses --      1.5505                 1.4167                 1.4314
 Frc consts  --      1.7696                 1.6322                 1.6556
 IR Inten    --      7.9825                13.2009                27.1920

                     58                     59                     60
                      A                      A                      A
 Frequencies --   1410.4262              1424.2945              1429.4512
 Red. masses --      1.4640                 1.3952                 1.3766
 Frc consts  --      1.7159                 1.6676                 1.6572
 IR Inten    --      5.2397                21.9863                 3.6781

                     61                     62                     63
                      A                      A                      A
 Frequencies --   1442.9567              1476.7246              1478.4501
 Red. masses --      1.3129                 1.1058                 1.0919
 Frc consts  --      1.6107                 1.4207                 1.4062
 IR Inten    --      9.5296                 4.1878                 8.4265

                     64                     65                     66
                      A                      A                      A
 Frequencies --   1482.9587              1486.3050              1492.0773
 Red. masses --      1.0866                 1.1116                 1.0882
 Frc consts  --      1.4079                 1.4469                 1.4274
 IR Inten    --      7.7907                17.9754                 3.6094

                     67                     68                     69
                      A                      A                      A
 Frequencies --   1494.8123              1508.6864              1509.7875
 Red. masses --      1.1080                 1.0949                 1.1012
 Frc consts  --      1.4586                 1.4683                 1.4790
 IR Inten    --     11.4110                 3.5408                 8.5682

                     70                     71                     72
                      A                      A                      A
 Frequencies --   3013.4434              3027.0989              3038.3693
 Red. masses --      1.0707                 1.0708                 1.0815
 Frc consts  --      5.7284                 5.7813                 5.8822
 IR Inten    --     82.8478                26.5790                91.7115

                     73                     74                     75
                      A                      A                      A
 Frequencies --   3054.3543              3063.4391              3065.6484
 Red. masses --      1.0682                 1.0630                 1.0692
 Frc consts  --      5.8715                 5.8778                 5.9203
 IR Inten    --     45.3290                43.3315                53.7947

                     76                     77                     78
                      A                      A                      A
 Frequencies --   3068.7224              3071.8593              3081.0410
 Red. masses --      1.0671                 1.0685                 1.0762
 Frc consts  --      5.9205                 5.9403                 6.0190
 IR Inten    --     28.8490                15.0331                86.0922

                     79                     80                     81
                      A                      A                      A
 Frequencies --   3085.2206              3112.9997              3118.5351
 Red. masses --      1.0604                 1.0982                 1.1019
 Frc consts  --      5.9469                 6.2700                 6.3136
 IR Inten    --     33.0156                39.3102                66.1422

                     82                     83                     84
                      A                      A                      A
 Frequencies --   3125.9822              3128.7608              3129.0015
 Red. masses --      1.0967                 1.0952                 1.1022
 Frc consts  --      6.3141                 6.3167                 6.3579
 IR Inten    --     21.4777                44.2307                49.2902

                     85                     86                     87
                      A                      A                      A
 Frequencies --   3132.7555              3134.1542              3135.0426
 Red. masses --      1.0988                 1.0965                 1.0997
 Frc consts  --      6.3538                 6.3462                 6.3683
 IR Inten    --     70.3403                 5.6247                47.5591

 - Thermochemistry -
 -------------------
 Temperature   298.150 Kelvin.  Pressure   1.00000 Atm.
 Atom     1 has atomic number  6 and mass  12.00000

 Molecular mass:   186.12559 amu.
 Principal axes and moments of inertia in atomic units:
                           1         2         3
     Eigenvalues --  1191.149653477.479433681.16960
           X            0.99982   0.00813   0.01693
           Y           -0.00697   0.99769  -0.06759
           Z           -0.01744   0.06746   0.99757
 This molecule is an asymmetric top.
 Rotational symmetry number  1.
 Warning -- assumption of classical behavior for rotation
           may cause significant error
 Rotational temperatures (Kelvin)      0.07271     0.02491     0.02353
 Rotational constants (GHZ):           1.51513     0.51898     0.49026
 Zero-point vibrational energy     737533.2 (Joules/Mol)
                                  176.27466 (Kcal/Mol)
 Warning -- explicit consideration of  17 degrees of freedom as
           vibrations may cause significant error
 Vibrational temperatures:     65.36   110.12   137.13   200.59   263.41
          (Kelvin)            340.86   389.95   400.42   479.08   547.69
                              575.72   626.44   636.03   699.57   755.15
                              768.82   862.72   965.27  1061.36  1200.70
                             1203.60  1222.46  1258.81  1263.73  1290.53
                             1302.19  1315.77  1341.29  1368.28  1449.98
                             1486.26  1493.94  1526.66  1530.77  1539.73
                             1549.64  1589.79  1646.02  1665.16  1690.77
                             1704.92  1741.26  1763.81  1775.45  1794.05
                             1852.39  1876.90  1899.34  1926.99  1954.80
                             1961.55  1973.11  1985.13  1995.91  2002.44
                             2011.91  2015.94  2029.29  2049.24  2056.66
                             2076.09  2124.68  2127.16  2133.65  2138.46
                             2146.77  2150.70  2170.66  2172.25  4335.67
                             4355.32  4371.54  4394.53  4407.61  4410.78
                             4415.21  4419.72  4432.93  4438.94  4478.91
                             4486.88  4497.59  4501.59  4501.94  4507.34
                             4509.35  4510.63

 Zero-point correction=                           0.280912 (Hartree/Particle)
 Thermal correction to Energy=                    0.292483
 Thermal correction to Enthalpy=                  0.293427
 Thermal correction to Gibbs Free Energy=         0.243089
 Sum of electronic and zero-point Energies=           -617.222568
 Sum of electronic and thermal Energies=              -617.210997
 Sum of electronic and thermal Enthalpies=            -617.210052
 Sum of electronic and thermal Free Energies=         -617.260391

                     E (Thermal)             CV                S
                      KCal/Mol        Cal/Mol-Kelvin    Cal/Mol-Kelvin
 Total                  183.536             46.443            105.946
 Electronic               0.000              0.000              0.000
 Translational            0.889              2.981             41.570
 Rotational               0.889              2.981             31.101
 Vibrational            181.759             40.481             33.276
 Vibration     1          0.595              1.979              5.007
 Vibration     2          0.599              1.965              3.978
 Vibration     3          0.603              1.953              3.548
 Vibration     4          0.615              1.914              2.812
 Vibration     5          0.631              1.863              2.297
 Vibration     6          0.656              1.784              1.826
 Vibration     7          0.675              1.727              1.590
 Vibration     8          0.679              1.714              1.544
 Vibration     9          0.715              1.610              1.246
 Vibration    10          0.750              1.511              1.037
 Vibration    11          0.766              1.470              0.962
 Vibration    12          0.796              1.393              0.841
 Vibration    13          0.802              1.378              0.820
 Vibration    14          0.842              1.281              0.693
 Vibration    15          0.880              1.195              0.599
 Vibration    16          0.889              1.174              0.578
 Vibration    17          0.958              1.033              0.450

 Optimization completed.
    -- Stationary point found.
 Normal termination of Gaussian 16 at Sun Nov  4 22:55:10 2018.
