 Gaussian 16, Revision A.03,
 Gaussian 16:  ES64L-G16RevA.03 25-Dec-2016

 ----------------------------------------------------------------------
 #M062X/6-311++G(2d,2p) opt=ModRedundant freq=noraman SCRF=(Solvent=Wat
 er)
 ----------------------------------------------------------------------

 ----------------------------
 D_1a_4a_L_PSI.inp_extract_18
 ----------------------------
 Symbolic Z-matrix:
 Charge =  0 Multiplicity = 1

 SCF Done:  E(RM062X) =  -617.502281677     A.U. after   13 cycles
 SCF Done:  E(RM062X) =  -617.504169916     A.U. after   10 cycles
 SCF Done:  E(RM062X) =  -617.504278112     A.U. after   10 cycles
 SCF Done:  E(RM062X) =  -617.504359070     A.U. after    9 cycles
 SCF Done:  E(RM062X) =  -617.504361659     A.U. after    8 cycles
 SCF Done:  E(RM062X) =  -617.504363302     A.U. after    8 cycles
 Optimization completed.
    -- Stationary point found.
 Normal termination of Gaussian 16 at Mon Nov  5 04:20:27 2018.

 ----------------------------------------------------------------------
 #N Geom=AllCheck Guess=TCheck SCRF=Check GenChk RM062X/6-311++G(2d,2p)
  Freq
 ----------------------------------------------------------------------

 Structure from the checkpoint file:  "D_1a_4a_L_PSI.inp_extract_18.chk"
 ----------------------------
 D_1a_4a_L_PSI.inp_extract_18
 ----------------------------
 Charge =  0 Multiplicity = 1

                         Standard orientation:
 ---------------------------------------------------------------------
 Center     Atomic      Atomic             Coordinates (Angstroms)
 Number     Number       Type             X           Y           Z
 ---------------------------------------------------------------------
      1          6           0       -3.481875    0.107365    0.492116
      2          6           0       -0.944661   -0.236304   -0.816236
      3          6           0        1.843792    0.463689    1.476700
      4          6           0       -2.821028    1.310077   -0.178734
      5          6           0        3.442016    0.288554   -0.438119
      6          8           0        2.505229   -0.511269   -1.150230
      7          6           0       -2.416811   -0.882523    0.931106
      8          6           0        0.913716   -0.454662    0.694312
      9          6           0        2.745763    1.243821    0.519268
     10          6           0        1.730726   -1.304029   -0.271636
     11          8           0       -1.606109   -1.300266   -0.169114
     12          8           0       -0.023000    0.395383    0.036386
     13          6           0       -1.914101    0.826273   -1.308446
     14          1           0       -4.158020   -0.385248   -0.210784
     15          1           0       -4.068844    0.411977    1.359037
     16          1           0        2.453805   -0.151812    2.141512
     17          1           0       -3.570857    1.997763   -0.568160
     18          1           0       -2.228404    1.856119    0.557632
     19          1           0       -1.782834   -0.433061    1.701642
     20          1           0       -2.853932   -1.793414    1.333656
     21          1           0        2.149478    1.952078   -0.056815
     22          1           0        3.494722    1.811520    1.071860
     23          1           0        2.382454   -1.955480    0.323549
     24          1           0        1.098090   -1.939654   -0.887026
     25          1           0       -2.516113    0.378291   -2.101009
     26          1           0       -1.343012    1.644683   -1.745356
     27          1           0       -0.427023   -0.701934   -1.656260
     28          1           0        4.123623   -0.369472    0.115748
     29          1           0        4.017814    0.826321   -1.188309
     30          1           0        1.252182    1.135043    2.098607
     31          1           0        0.382689   -1.128074    1.372151
 ---------------------------------------------------------------------

 SCF Done:  E(RM062X) =  -617.504363302     A.U. after    1 cycles

 The electronic state is 1-A.
 Alpha  occ. eigenvalues --  -19.63125 -19.63058 -19.62961 -10.63366 -10.58682
 Alpha  occ. eigenvalues --  -10.58068 -10.57931 -10.57893 -10.53247 -10.53046
 Alpha  occ. eigenvalues --  -10.52969 -10.52895 -10.52886  -1.20171  -1.16494
 Alpha  occ. eigenvalues --   -1.13164  -0.91098  -0.89731  -0.86904  -0.84743
 Alpha  occ. eigenvalues --   -0.74868  -0.74086  -0.72862  -0.71039  -0.66005
 Alpha  occ. eigenvalues --   -0.62767  -0.59787  -0.58808  -0.57783  -0.55479
 Alpha  occ. eigenvalues --   -0.54326  -0.52739  -0.52446  -0.50185  -0.49885
 Alpha  occ. eigenvalues --   -0.48292  -0.46960  -0.45968  -0.45702  -0.45507
 Alpha  occ. eigenvalues --   -0.43713  -0.43264  -0.40487  -0.39975  -0.39210
 Alpha  occ. eigenvalues --   -0.38221  -0.37961  -0.36232  -0.35115  -0.33451
 Alpha  occ. eigenvalues --   -0.31975
 Alpha virt. eigenvalues --   -0.00165   0.00838   0.00907   0.00985   0.02215
 Alpha virt. eigenvalues --    0.02475   0.02736   0.03245   0.03477   0.04569
 Alpha virt. eigenvalues --    0.04706   0.04890   0.05532   0.05773   0.07192

 Mulliken charges:
               1
     1  C   -0.400371
     2  C   -0.080755
     3  C   -0.423715
     4  C   -0.289817
     5  C   -0.167744
     6  O   -0.281569
     7  C   -0.114473
     8  C    0.032981
     9  C   -0.310953
    10  C   -0.450928
    11  O   -0.273002
    12  O   -0.230401
    13  C   -0.401595
    14  H    0.166104
    15  H    0.174721
    16  H    0.213241
    17  H    0.183359
    18  H    0.169746
    19  H    0.134095
    20  H    0.205990
    21  H    0.168414
    22  H    0.176622
    23  H    0.188656
    24  H    0.232010
    25  H    0.195581
    26  H    0.181791
    27  H    0.253322
    28  H    0.149612
    29  H    0.200298
    30  H    0.164154
    31  H    0.234627
 Sum of Mulliken charges =  -0.00000

 Dipole moment (field-independent basis, Debye):
    X=             -0.2680    Y=              0.6460    Z=              2.4301  Tot=              2.5287
 Quadrupole moment (field-independent basis, Debye-Ang):
   XX=            -71.7565   YY=            -81.5760   ZZ=            -79.6760
   XY=             -0.7113   XZ=              4.1023   YZ=             -2.7100

  Exact polarizability: 171.462   1.892 155.905  -1.031  -2.316 156.129
 Approx polarizability: 145.036   1.945 142.720   0.428  -1.043 143.478

                      1                      2                      3
                      A                      A                      A
 Frequencies --      5.5571                68.3754               105.1607
 Red. masses --      3.9584                 3.7218                 3.6084
 Frc consts  --      0.0001                 0.0103                 0.0235
 IR Inten    --      0.1697                 3.0802                 1.5262

                      4                      5                      6
                      A                      A                      A
 Frequencies --    135.8014               183.1018               236.9865
 Red. masses --      3.6418                 3.0074                 3.1700
 Frc consts  --      0.0396                 0.0594                 0.1049
 IR Inten    --      1.1014                 6.1336                 8.5070

                      7                      8                      9
                      A                      A                      A
 Frequencies --    265.8873               283.4401               352.4259
 Red. masses --      2.5959                 2.2946                 2.3578
 Frc consts  --      0.1081                 0.1086                 0.1725
 IR Inten    --      3.2571                10.0959                 6.7157

                     10                     11                     12
                      A                      A                      A
 Frequencies --    375.7444               398.4813               437.3616
 Red. masses --      2.3013                 2.1597                 3.6676
 Frc consts  --      0.1914                 0.2020                 0.4133
 IR Inten    --      4.2868                 1.4038                 8.4403

                     13                     14                     15
                      A                      A                      A
 Frequencies --    450.6594               496.1639               522.9677
 Red. masses --      2.1608                 4.3341                 2.4427
 Frc consts  --      0.2586                 0.6286                 0.3936
 IR Inten    --      3.0860                11.1120                 3.8205

                     16                     17                     18
                      A                      A                      A
 Frequencies --    535.4325               593.8746               695.3529
 Red. masses --      1.8716                 2.8060                 3.0233
 Frc consts  --      0.3161                 0.5831                 0.8613
 IR Inten    --      1.9060                 5.5862                 4.7810

                     19                     20                     21
                      A                      A                      A
 Frequencies --    750.0925               830.1046               839.2606
 Red. masses --      2.6099                 1.6387                 3.7016
 Frc consts  --      0.8652                 0.6653                 1.5361
 IR Inten    --     11.6360                 6.1798                12.0412

                     22                     23                     24
                      A                      A                      A
 Frequencies --    840.5983               867.3805               876.3662
 Red. masses --      3.0227                 2.2806                 1.5953
 Frc consts  --      1.2584                 1.0109                 0.7219
 IR Inten    --      2.6329                10.8433                15.5564

                     25                     26                     27
                      A                      A                      A
 Frequencies --    897.1857               905.7394               916.8827
 Red. masses --      2.4486                 2.6230                 2.4627
 Frc consts  --      1.1613                 1.2678                 1.2198
 IR Inten    --     26.3169                27.7374                33.6314

                     28                     29                     30
                      A                      A                      A
 Frequencies --    925.9944               948.5296              1001.2026
 Red. masses --      1.8077                 1.6687                 1.7599
 Frc consts  --      0.9133                 0.8845                 1.0394
 IR Inten    --      7.3599                25.1437                18.3206

                     31                     32                     33
                      A                      A                      A
 Frequencies --   1038.0353              1042.1727              1057.3885
 Red. masses --      2.2659                 2.1682                 2.1584
 Frc consts  --      1.4385                 1.3875                 1.4219
 IR Inten    --     16.5865                31.8975               171.0779

                     34                     35                     36
                      A                      A                      A
 Frequencies --   1057.9807              1066.8561              1078.1375
 Red. masses --      1.9350                 1.6568                 2.3783
 Frc consts  --      1.2761                 1.1110                 1.6288
 IR Inten    --     62.8630                28.7957                99.5801

                     37                     38                     39
                      A                      A                      A
 Frequencies --   1101.9442              1150.6927              1154.3037
 Red. masses --      1.5285                 2.7121                 2.5221
 Frc consts  --      1.0936                 2.1158                 1.9799
 IR Inten    --     19.3765                24.9995               139.0952

                     40                     41                     42
                      A                      A                      A
 Frequencies --   1173.6770              1186.6971              1211.3383
 Red. masses --      2.7189                 3.0497                 1.4116
 Frc consts  --      2.2067                 2.5304                 1.2204
 IR Inten    --     98.2685               134.7596                12.0521

                     43                     44                     45
                      A                      A                      A
 Frequencies --   1232.8244              1233.6831              1246.6751
 Red. masses --      1.5881                 1.4648                 1.7319
 Frc consts  --      1.4221                 1.3135                 1.5859
 IR Inten    --     88.9052                32.3639                36.9589

                     46                     47                     48
                      A                      A                      A
 Frequencies --   1289.3165              1299.8150              1322.4883
 Red. masses --      1.2198                 1.1294                 1.1528
 Frc consts  --      1.1947                 1.1243                 1.1880
 IR Inten    --     20.9951                27.4160                 9.3706

                     49                     50                     51
                      A                      A                      A
 Frequencies --   1336.7206              1357.6167              1362.5248
 Red. masses --      1.2357                 1.3505                 1.3372
 Frc consts  --      1.3009                 1.4665                 1.4626
 IR Inten    --     12.8925                22.8623                 0.8986

                     52                     53                     54
                      A                      A                      A
 Frequencies --   1370.0645              1382.7335              1387.2545
 Red. masses --      1.5254                 1.2875                 1.4760
 Frc consts  --      1.6870                 1.4503                 1.6736
 IR Inten    --     13.5639                15.3798                 4.9585

                     55                     56                     57
                      A                      A                      A
 Frequencies --   1392.2023              1395.8013              1403.8972
 Red. masses --      1.5269                 1.7947                 1.4101
 Frc consts  --      1.7437                 2.0601                 1.6374
 IR Inten    --     11.0696                14.6440                 1.5193

                     58                     59                     60
                      A                      A                      A
 Frequencies --   1411.0458              1418.6272              1431.4265
 Red. masses --      1.3126                 1.4247                 1.3387
 Frc consts  --      1.5398                 1.6893                 1.6161
 IR Inten    --      4.1337                 0.4495                 8.8451

                     61                     62                     63
                      A                      A                      A
 Frequencies --   1436.6552              1474.6361              1476.0735
 Red. masses --      1.3775                 1.1027                 1.0861
 Frc consts  --      1.6751                 1.4128                 1.3942
 IR Inten    --     15.5446                 5.7951                 5.6527

                     64                     65                     66
                      A                      A                      A
 Frequencies --   1482.8852              1486.0836              1495.6613
 Red. masses --      1.0879                 1.1139                 1.1079
 Frc consts  --      1.4095                 1.4493                 1.4602
 IR Inten    --      7.5280                13.4729                12.9757

                     67                     68                     69
                      A                      A                      A
 Frequencies --   1504.5773              1507.2736              1518.0672
 Red. masses --      1.0846                 1.0949                 1.0997
 Frc consts  --      1.4466                 1.4656                 1.4932
 IR Inten    --      2.6684                 3.2366                21.5059

                     70                     71                     72
                      A                      A                      A
 Frequencies --   3013.2468              3025.3165              3047.4961
 Red. masses --      1.0708                 1.0714                 1.0692
 Frc consts  --      5.7281                 5.7777                 5.8507
 IR Inten    --     78.2457                54.5673                54.2786

                     73                     74                     75
                      A                      A                      A
 Frequencies --   3063.1206              3063.3443              3073.6665
 Red. masses --      1.0656                 1.0750                 1.0641
 Frc consts  --      5.8905                 5.9436                 5.9232
 IR Inten    --     29.6184                31.3417                25.1405

                     76                     77                     78
                      A                      A                      A
 Frequencies --   3074.6379              3076.8871              3080.5824
 Red. masses --      1.0695                 1.0648                 1.0606
 Frc consts  --      5.9567                 5.9391                 5.9304
 IR Inten    --     87.5369                14.0338                24.6937

                     79                     80                     81
                      A                      A                      A
 Frequencies --   3089.6486              3114.3194              3117.9643
 Red. masses --      1.0824                 1.0981                 1.1007
 Frc consts  --      6.0878                 6.2749                 6.3047
 IR Inten    --     76.4949                37.2486                30.7890

                     82                     83                     84
                      A                      A                      A
 Frequencies --   3120.0836              3125.7505              3129.6468
 Red. masses --      1.1022                 1.1008                 1.1038
 Frc consts  --      6.3219                 6.3367                 6.3697
 IR Inten    --     58.3966                55.7167                41.2382

                     85                     86                     87
                      A                      A                      A
 Frequencies --   3131.4302              3136.4286              3139.8323
 Red. masses --      1.0977                 1.0973                 1.0920
 Frc consts  --      6.3418                 6.3596                 6.3427
 IR Inten    --     47.7424                43.0764                39.4674

 - Thermochemistry -
 -------------------
 Temperature   298.150 Kelvin.  Pressure   1.00000 Atm.
 Atom     1 has atomic number  6 and mass  12.00000

 Molecular mass:   186.12559 amu.
 Principal axes and moments of inertia in atomic units:
                           1         2         3
     Eigenvalues --  1016.384583918.952613980.19742
           X            0.99998  -0.00167   0.00645
           Y            0.00265   0.98802  -0.15430
           Z           -0.00611   0.15431   0.98800
 This molecule is an asymmetric top.
 Rotational symmetry number  1.
 Warning -- assumption of classical behavior for rotation
           may cause significant error
 Rotational temperatures (Kelvin)      0.08522     0.02210     0.02176
 Rotational constants (GHZ):           1.77565     0.46052     0.45343
 Zero-point vibrational energy     737745.2 (Joules/Mol)
                                  176.32534 (Kcal/Mol)
 Warning -- explicit consideration of  17 degrees of freedom as
           vibrations may cause significant error
 Vibrational temperatures:      8.00    98.38   151.30   195.39   263.44
          (Kelvin)            340.97   382.55   407.81   507.06   540.61
                              573.33   629.27   648.40   713.87   752.43
                              770.37   854.45  1000.46  1079.22  1194.34
                             1207.51  1209.43  1247.97  1260.90  1290.85
                             1303.16  1319.19  1332.30  1364.72  1440.51
                             1493.50  1499.45  1521.35  1522.20  1534.97
                             1551.20  1585.45  1655.59  1660.79  1688.66
                             1707.39  1742.85  1773.76  1774.99  1793.69
                             1855.04  1870.14  1902.77  1923.24  1953.31
                             1960.37  1971.22  1989.45  1995.95  2003.07
                             2008.25  2019.89  2030.18  2041.09  2059.50
                             2067.03  2121.67  2123.74  2133.54  2138.14
                             2151.92  2164.75  2168.63  2184.16  4335.39
                             4352.76  4384.67  4407.15  4407.47  4422.32
                             4423.72  4426.95  4432.27  4445.32  4480.81
                             4486.06  4489.10  4497.26  4502.86  4505.43
                             4512.62  4517.52

 Zero-point correction=                           0.280992 (Hartree/Particle)
 Thermal correction to Energy=                    0.292619
 Thermal correction to Enthalpy=                  0.293563
 Thermal correction to Gibbs Free Energy=         0.241250
 Sum of electronic and zero-point Energies=           -617.223371
 Sum of electronic and thermal Energies=              -617.211744
 Sum of electronic and thermal Enthalpies=            -617.210800
 Sum of electronic and thermal Free Energies=         -617.263113

                     E (Thermal)             CV                S
                      KCal/Mol        Cal/Mol-Kelvin    Cal/Mol-Kelvin
 Total                  183.621             46.366            110.101
 Electronic               0.000              0.000              0.000
 Translational            0.889              2.981             41.570
 Rotational               0.889              2.981             31.139
 Vibrational            181.844             40.404             37.392
 Vibration     1          0.593              1.987              9.178
 Vibration     2          0.598              1.969              4.200
 Vibration     3          0.605              1.945              3.356
 Vibration     4          0.614              1.918              2.862
 Vibration     5          0.631              1.863              2.297
 Vibration     6          0.656              1.784              1.825
 Vibration     7          0.672              1.736              1.623
 Vibration     8          0.682              1.704              1.513
 Vibration     9          0.729              1.570              1.155
 Vibration    10          0.747              1.522              1.056
 Vibration    11          0.765              1.473              0.968
 Vibration    12          0.798              1.389              0.835
 Vibration    13          0.809              1.359              0.794
 Vibration    14          0.852              1.259              0.668
 Vibration    15          0.878              1.199              0.603
 Vibration    16          0.890              1.172              0.575
 Vibration    17          0.951              1.045              0.460

                           ! Non-Optimized Parameters !
 Normal termination of Gaussian 16 at Mon Nov  5 05:29:06 2018.
