 Gaussian 16, Revision A.03,
 Gaussian 16:  ES64L-G16RevA.03 25-Dec-2016

 ----------------------------------------------------------------------
 #M062X/6-311++G(2d,2p) opt=ModRedundant freq=noraman SCRF=(Solvent=Wat
 er)
 ----------------------------------------------------------------------

 ----------------------------
 D_1a_4a_L_PSI.inp_extract_21
 ----------------------------
 Symbolic Z-matrix:
 Charge =  0 Multiplicity = 1

 SCF Done:  E(RM062X) =  -617.502236591     A.U. after   13 cycles
 SCF Done:  E(RM062X) =  -617.503879720     A.U. after   11 cycles
 SCF Done:  E(RM062X) =  -617.504002028     A.U. after    9 cycles
 SCF Done:  E(RM062X) =  -617.504013392     A.U. after    9 cycles
 SCF Done:  E(RM062X) =  -617.504014763     A.U. after    8 cycles
 SCF Done:  E(RM062X) =  -617.504014767     A.U. after    7 cycles
 Optimization completed.
    -- Stationary point found.
 Normal termination of Gaussian 16 at Sun Nov  4 21:55:40 2018.

 ----------------------------------------------------------------------
 #N Geom=AllCheck Guess=TCheck SCRF=Check GenChk RM062X/6-311++G(2d,2p)
  Freq
 ----------------------------------------------------------------------

 Structure from the checkpoint file:  "D_1a_4a_L_PSI.inp_extract_21.chk"
 ----------------------------
 D_1a_4a_L_PSI.inp_extract_21
 ----------------------------
 Charge =  0 Multiplicity = 1

                         Standard orientation:
 ---------------------------------------------------------------------
 Center     Atomic      Atomic             Coordinates (Angstroms)
 Number     Number       Type             X           Y           Z
 ---------------------------------------------------------------------
      1          6           0        3.336221    0.674589    0.517323
      2          6           0        1.143674   -0.826872   -0.585295
      3          6           0       -1.615365    1.417861   -0.360557
      4          6           0        2.641639   -0.377794    1.379852
      5          6           0       -3.404077    0.086030    0.751063
      6          8           0       -2.771642   -1.121002    0.345626
      7          6           0        2.361525    1.213519   -0.515710
      8          6           0       -1.029541    0.098494   -0.846919
      9          6           0       -2.390683    1.204262    0.938986
     10          6           0       -2.106091   -0.976569   -0.895548
     11          8           0        1.822675    0.165972   -1.323969
     12          8           0        0.006711   -0.303542    0.050682
     13          6           0        2.033316   -1.450208    0.477535
     14          1           0        4.190117    0.227064    0.002904
     15          1           0        3.709823    1.499487    1.124726
     16          1           0       -2.291465    1.797058   -1.130782
     17          1           0        3.342479   -0.830592    2.080298
     18          1           0        1.853308    0.096263    1.967949
     19          1           0        1.545002    1.745282   -0.019887
     20          1           0        2.846936    1.896931   -1.208758
     21          1           0       -1.704169    0.930557    1.741721
     22          1           0       -2.905615    2.117552    1.237440
     23          1           0       -2.829555   -0.724426   -1.680866
     24          1           0       -1.663448   -1.944437   -1.127398
     25          1           0        2.828372   -1.993546   -0.036236
     26          1           0        1.447662   -2.171235    1.046263
     27          1           0        0.845860   -1.567043   -1.332906
     28          1           0       -4.146778    0.374584   -0.003903
     29          1           0       -3.926743   -0.139767    1.678136
     30          1           0       -0.816144    2.147262   -0.234600
     31          1           0       -0.611292    0.227699   -1.847186
 ---------------------------------------------------------------------

 SCF Done:  E(RM062X) =  -617.504014767     A.U. after    1 cycles

 The electronic state is 1-A.
 Alpha  occ. eigenvalues --  -19.62964 -19.62952 -19.62836 -10.63487 -10.58646
 Alpha  occ. eigenvalues --  -10.58031 -10.57903 -10.57744 -10.53253 -10.53064
 Alpha  occ. eigenvalues --  -10.52993 -10.52920 -10.52859  -1.20048  -1.16407
 Alpha  occ. eigenvalues --   -1.13146  -0.91021  -0.89703  -0.86996  -0.84582
 Alpha  occ. eigenvalues --   -0.74312  -0.74041  -0.72796  -0.71560  -0.66217
 Alpha  occ. eigenvalues --   -0.62796  -0.59455  -0.58208  -0.57857  -0.55669
 Alpha  occ. eigenvalues --   -0.54267  -0.53028  -0.51853  -0.50955  -0.49966
 Alpha  occ. eigenvalues --   -0.48257  -0.46617  -0.46113  -0.45745  -0.45038
 Alpha  occ. eigenvalues --   -0.43601  -0.43153  -0.41081  -0.40150  -0.38775
 Alpha  occ. eigenvalues --   -0.38424  -0.37421  -0.36337  -0.35433  -0.33399
 Alpha  occ. eigenvalues --   -0.31760
 Alpha virt. eigenvalues --   -0.00153   0.00829   0.00846   0.01065   0.02243
 Alpha virt. eigenvalues --    0.02539   0.02717   0.03206   0.03326   0.04631
 Alpha virt. eigenvalues --    0.04889   0.04940   0.05320   0.05902   0.07137

 Mulliken charges:
               1
     1  C   -0.366540
     2  C   -0.114880
     3  C   -0.317106
     4  C   -0.331236
     5  C   -0.227261
     6  O   -0.305007
     7  C   -0.112038
     8  C    0.004349
     9  C   -0.336160
    10  C   -0.372229
    11  O   -0.286188
    12  O   -0.226374
    13  C   -0.340868
    14  H    0.164400
    15  H    0.170777
    16  H    0.211593
    17  H    0.184044
    18  H    0.173588
    19  H    0.114964
    20  H    0.209671
    21  H    0.164649
    22  H    0.176996
    23  H    0.178926
    24  H    0.196380
    25  H    0.189876
    26  H    0.177943
    27  H    0.233494
    28  H    0.151062
    29  H    0.199705
    30  H    0.158580
    31  H    0.274887
 Sum of Mulliken charges =  -0.00000

 Dipole moment (field-independent basis, Debye):
    X=              0.3019    Y=              1.8912    Z=             -0.3875  Tot=              1.9539
 Quadrupole moment (field-independent basis, Debye-Ang):
   XX=            -75.4152   YY=            -78.3826   ZZ=            -81.1862
   XY=             -5.6751   XZ=              5.6576   YZ=              2.7655

  Exact polarizability: 169.589   0.191 158.822  -0.230   1.495 154.911
 Approx polarizability: 144.908  -0.878 142.767  -1.087   0.968 143.326

 ******    1 imaginary frequencies (negative Signs) ******

                      1                      2                      3
                      A                      A                      A
 Frequencies --    -12.3672                61.5451                73.8340
 Red. masses --      3.7273                 4.0106                 3.5551
 Frc consts  --      0.0003                 0.0090                 0.0114
 IR Inten    --      0.6386                 3.8555                 1.9668

                      4                      5                      6
                      A                      A                      A
 Frequencies --    139.4591               165.6482               236.6433
 Red. masses --      3.1688                 3.4754                 2.7168
 Frc consts  --      0.0363                 0.0562                 0.0896
 IR Inten    --      5.0471                 1.1076                 1.7060

                      7                      8                      9
                      A                      A                      A
 Frequencies --    243.6628               280.3957               338.4777
 Red. masses --      2.9639                 2.3244                 2.0753
 Frc consts  --      0.1037                 0.1077                 0.1401
 IR Inten    --      5.4775                 8.2440                 1.6880

                     10                     11                     12
                      A                      A                      A
 Frequencies --    380.0982               412.2140               434.9151
 Red. masses --      2.1201                 2.4483                 2.7907
 Frc consts  --      0.1805                 0.2451                 0.3110
 IR Inten    --      2.5086                 2.8780                10.8905

                     13                     14                     15
                      A                      A                      A
 Frequencies --    436.1632               506.3188               521.0578
 Red. masses --      2.5291                 2.9547                 2.6543
 Frc consts  --      0.2835                 0.4463                 0.4246
 IR Inten    --      2.2412                15.6125                 7.4135

                     16                     17                     18
                      A                      A                      A
 Frequencies --    529.3383               576.8027               669.7003
 Red. masses --      2.4842                 3.2358                 2.5742
 Frc consts  --      0.4101                 0.6343                 0.6802
 IR Inten    --      4.9592                 7.7265                 4.1715

                     19                     20                     21
                      A                      A                      A
 Frequencies --    749.4988               832.3775               837.2946
 Red. masses --      2.5549                 1.6071                 3.3164
 Frc consts  --      0.8456                 0.6561                 1.3698
 IR Inten    --      5.1109                 0.8219                17.8293

                     22                     23                     24
                      A                      A                      A
 Frequencies --    853.5189               870.7893               878.1605
 Red. masses --      3.5048                 1.9942                 1.6686
 Frc consts  --      1.5043                 0.8909                 0.7582
 IR Inten    --      2.3042                12.3654                13.4930

                     25                     26                     27
                      A                      A                      A
 Frequencies --    895.2053               904.5833               908.1860
 Red. masses --      2.5114                 2.5747                 2.4201
 Frc consts  --      1.1858                 1.2413                 1.1761
 IR Inten    --     26.4970                48.7599                21.3083

                     28                     29                     30
                      A                      A                      A
 Frequencies --    932.6393               951.8536              1008.4861
 Red. masses --      1.7762                 1.6812                 1.6681
 Frc consts  --      0.9103                 0.8975                 0.9996
 IR Inten    --     14.5311                 9.2142                29.3867

                     31                     32                     33
                      A                      A                      A
 Frequencies --   1034.6745              1044.2411              1055.2641
 Red. masses --      2.2301                 2.1228                 2.6152
 Frc consts  --      1.4066                 1.3638                 1.7158
 IR Inten    --     11.8156               103.9481               104.5465

                     34                     35                     36
                      A                      A                      A
 Frequencies --   1060.7015              1068.3590              1074.9827
 Red. masses --      1.9096                 1.7422                 2.4254
 Frc consts  --      1.2658                 1.1716                 1.6514
 IR Inten    --    118.4747                51.3694               116.5964

                     37                     38                     39
                      A                      A                      A
 Frequencies --   1102.4162              1147.4769              1153.4261
 Red. masses --      1.5386                 2.1584                 2.9009
 Frc consts  --      1.1017                 1.6744                 2.2738
 IR Inten    --     30.9066                91.8213               117.9321

                     40                     41                     42
                      A                      A                      A
 Frequencies --   1169.1583              1182.9413              1212.2757
 Red. masses --      3.4385                 2.5796                 1.4204
 Frc consts  --      2.7693                 2.1268                 1.2299
 IR Inten    --    131.4822                25.2696                14.0424

                     43                     44                     45
                      A                      A                      A
 Frequencies --   1230.3044              1234.3746              1246.3744
 Red. masses --      1.4107                 1.5990                 1.8145
 Frc consts  --      1.2581                 1.4355                 1.6608
 IR Inten    --     45.4247                60.1352                34.0052

                     46                     47                     48
                      A                      A                      A
 Frequencies --   1288.9296              1303.6813              1319.3992
 Red. masses --      1.2096                 1.1433                 1.1485
 Frc consts  --      1.1840                 1.1449                 1.1779
 IR Inten    --     25.4698                 6.5708                 7.1164

                     49                     50                     51
                      A                      A                      A
 Frequencies --   1337.5516              1358.8011              1364.4926
 Red. masses --      1.2236                 1.3422                 1.4954
 Frc consts  --      1.2897                 1.4600                 1.6404
 IR Inten    --     13.8793                16.1172                 1.2801

                     52                     53                     54
                      A                      A                      A
 Frequencies --   1368.7010              1379.5453              1386.8760
 Red. masses --      1.5004                 1.3408                 1.4774
 Frc consts  --      1.6561                 1.5034                 1.6743
 IR Inten    --      2.9905                38.5326                 2.6910

                     55                     56                     57
                      A                      A                      A
 Frequencies --   1391.4302              1396.7708              1404.2408
 Red. masses --      1.5725                 1.4553                 1.3878
 Frc consts  --      1.7938                 1.6728                 1.6123
 IR Inten    --      5.9780                32.7253                13.5050

                     58                     59                     60
                      A                      A                      A
 Frequencies --   1406.6057              1426.9337              1433.1484
 Red. masses --      1.3829                 1.3902                 1.4241
 Frc consts  --      1.6121                 1.6677                 1.7234
 IR Inten    --      5.6606                20.3166                 7.1829

                     61                     62                     63
                      A                      A                      A
 Frequencies --   1439.3296              1475.9633              1476.1047
 Red. masses --      1.2923                 1.0999                 1.0941
 Frc consts  --      1.5774                 1.4117                 1.4045
 IR Inten    --      0.6741                 6.8180                 4.8598

                     64                     65                     66
                      A                      A                      A
 Frequencies --   1482.5893              1485.2192              1490.8588
 Red. masses --      1.0866                 1.1179                 1.0895
 Frc consts  --      1.4072                 1.4529                 1.4268
 IR Inten    --      8.5549                16.0689                 2.5471

                     67                     68                     69
                      A                      A                      A
 Frequencies --   1494.7868              1508.4023              1510.6894
 Red. masses --      1.1089                 1.0944                 1.1000
 Frc consts  --      1.4598                 1.4671                 1.4791
 IR Inten    --     14.3189                 5.6469                 5.9858

                     70                     71                     72
                      A                      A                      A
 Frequencies --   3012.8952              3020.5021              3057.4501
 Red. masses --      1.0707                 1.0691                 1.0689
 Frc consts  --      5.7266                 5.7468                 5.8872
 IR Inten    --     75.1394                74.3622                50.7931

                     73                     74                     75
                      A                      A                      A
 Frequencies --   3061.8685              3064.0761              3067.4180
 Red. masses --      1.0810                 1.0628                 1.0663
 Frc consts  --      5.9710                 5.8791                 5.9111
 IR Inten    --     23.9597                45.4121                27.9479

                     76                     77                     78
                      A                      A                      A
 Frequencies --   3072.1353              3076.5600              3080.3250
 Red. masses --      1.0627                 1.0603                 1.0658
 Frc consts  --      5.9096                 5.9132                 5.9581
 IR Inten    --     31.7579                24.9038                45.4121

                     79                     80                     81
                      A                      A                      A
 Frequencies --   3086.1206              3112.3300              3118.5589
 Red. masses --      1.0839                 1.0982                 1.1025
 Frc consts  --      6.0824                 6.2676                 6.3173
 IR Inten    --     67.3506                36.4665                55.6917

                     82                     83                     84
                      A                      A                      A
 Frequencies --   3119.1834              3122.3925              3124.8244
 Red. masses --      1.0993                 1.0951                 1.1020
 Frc consts  --      6.3015                 6.2902                 6.3401
 IR Inten    --     56.0416                29.1113                61.1485

                     85                     86                     87
                      A                      A                      A
 Frequencies --   3130.9545              3131.0875              3134.5636
 Red. masses --      1.1027                 1.0959                 1.0997
 Frc consts  --      6.3688                 6.3302                 6.3659
 IR Inten    --     50.7520                31.5386                44.0388

 - Thermochemistry -
 -------------------
 Temperature   298.150 Kelvin.  Pressure   1.00000 Atm.
 Atom     1 has atomic number  6 and mass  12.00000

 Molecular mass:   186.12559 amu.
 Principal axes and moments of inertia in atomic units:
                           1         2         3
     Eigenvalues --  1090.937543903.532824042.79823
           X            0.99990  -0.01006   0.01031
           Y            0.00949   0.99848   0.05423
           Z           -0.01084  -0.05412   0.99848
 This molecule is an asymmetric top.
 Rotational symmetry number  1.
 Warning -- assumption of classical behavior for rotation
           may cause significant error
 Rotational temperatures (Kelvin)      0.07939     0.02219     0.02142
 Rotational constants (GHZ):           1.65430     0.46234     0.44641
    1 imaginary frequencies ignored.
 Zero-point vibrational energy     736721.0 (Joules/Mol)
                                  176.08055 (Kcal/Mol)
 Warning -- explicit consideration of  16 degrees of freedom as
           vibrations may cause significant error
 Vibrational temperatures:     88.55   106.23   200.65   238.33   340.48
          (Kelvin)            350.58   403.43   486.99   546.88   593.08
                              625.75   627.54   728.48   749.69   761.60
                              829.89   963.55  1078.36  1197.61  1204.68
                             1228.02  1252.87  1263.48  1288.00  1301.49
                             1306.68  1341.86  1369.50  1450.99  1488.67
                             1502.43  1518.29  1526.11  1537.13  1546.66
                             1586.13  1650.96  1659.52  1682.16  1701.99
                             1744.19  1770.13  1775.99  1793.25  1854.48
                             1875.71  1898.32  1924.44  1955.01  1963.20
                             1969.26  1984.86  1995.41  2001.96  2009.64
                             2020.39  2023.79  2053.04  2061.98  2070.87
                             2123.58  2123.79  2133.12  2136.90  2145.01
                             2150.66  2170.25  2173.55  4334.88  4345.83
                             4398.99  4405.35  4408.52  4413.33  4420.12
                             4426.48  4431.90  4440.24  4477.95  4486.91
                             4487.81  4492.43  4495.93  4504.75  4504.94
                             4509.94

 Zero-point correction=                           0.280602 (Hartree/Particle)
 Thermal correction to Energy=                    0.291458
 Thermal correction to Enthalpy=                  0.292402
 Thermal correction to Gibbs Free Energy=         0.243791
 Sum of electronic and zero-point Energies=           -617.223413
 Sum of electronic and thermal Energies=              -617.212557
 Sum of electronic and thermal Enthalpies=            -617.211612
 Sum of electronic and thermal Free Energies=         -617.260224

                     E (Thermal)             CV                S
                      KCal/Mol        Cal/Mol-Kelvin    Cal/Mol-Kelvin
 Total                  182.893             44.557            102.312
 Electronic               0.000              0.000              0.000
 Translational            0.889              2.981             41.570
 Rotational               0.889              2.981             31.221
 Vibrational            181.115             38.595             29.521
 Vibration     1          0.597              1.973              4.407
 Vibration     2          0.599              1.966              4.048
 Vibration     3          0.615              1.914              2.811
 Vibration     4          0.624              1.885              2.484
 Vibration     5          0.656              1.785              1.828
 Vibration     6          0.659              1.773              1.776
 Vibration     7          0.680              1.710              1.531
 Vibration     8          0.719              1.599              1.219
 Vibration     9          0.750              1.513              1.039
 Vibration    10          0.776              1.444              0.919
 Vibration    11          0.796              1.394              0.843
 Vibration    12          0.797              1.391              0.839
 Vibration    13          0.862              1.236              0.643
 Vibration    14          0.876              1.203              0.608
 Vibration    15          0.884              1.185              0.589
 Vibration    16          0.933              1.081              0.491

 Optimization completed.
    -- Stationary point found.
 Normal termination of Gaussian 16 at Sun Nov  4 22:53:45 2018.
