 Gaussian 16, Revision A.03,
 Gaussian 16:  ES64L-G16RevA.03 25-Dec-2016

 ----------------------------------------------------------------------
 #M062X/6-311++G(2d,2p) opt=ModRedundant freq=noraman SCRF=(Solvent=Wat
 er)
 ----------------------------------------------------------------------

 ----------------------------
 D_1a_4a_L_PSI.inp_extract_20
 ----------------------------
 Symbolic Z-matrix:
 Charge =  0 Multiplicity = 1

 SCF Done:  E(RM062X) =  -617.502602611     A.U. after   13 cycles
 SCF Done:  E(RM062X) =  -617.504301554     A.U. after   10 cycles
 SCF Done:  E(RM062X) =  -617.504451422     A.U. after   10 cycles
 SCF Done:  E(RM062X) =  -617.504492388     A.U. after   10 cycles
 SCF Done:  E(RM062X) =  -617.504499343     A.U. after    8 cycles
 SCF Done:  E(RM062X) =  -617.504500889     A.U. after    8 cycles
 SCF Done:  E(RM062X) =  -617.504500989     A.U. after    7 cycles
 Optimization completed.
    -- Stationary point found.
 Normal termination of Gaussian 16 at Sun Nov  4 22:00:07 2018.

 ----------------------------------------------------------------------
 #N Geom=AllCheck Guess=TCheck SCRF=Check GenChk RM062X/6-311++G(2d,2p)
  Freq
 ----------------------------------------------------------------------

 Structure from the checkpoint file:  "D_1a_4a_L_PSI.inp_extract_20.chk"
 ----------------------------
 D_1a_4a_L_PSI.inp_extract_20
 ----------------------------
 Charge =  0 Multiplicity = 1

                         Standard orientation:
 ---------------------------------------------------------------------
 Center     Atomic      Atomic             Coordinates (Angstroms)
 Number     Number       Type             X           Y           Z
 ---------------------------------------------------------------------
      1          6           0        3.394914    0.630479    0.413934
      2          6           0        1.092687   -0.843657   -0.475156
      3          6           0       -1.676373    1.483775   -0.169965
      4          6           0        2.658338   -0.275250    1.399674
      5          6           0       -3.450745   -0.061111    0.649727
      6          8           0       -2.728812   -1.173188    0.137293
      7          6           0        2.437118    1.105347   -0.666126
      8          6           0       -0.988938    0.271017   -0.784284
      9          6           0       -2.513395    1.070348    1.039839
     10          6           0       -2.003630   -0.839204   -1.031312
     11          8           0        1.821880    0.004516   -1.337032
     12          8           0        0.020457   -0.164409    0.126076
     13          6           0        1.966571   -1.402912    0.635069
     14          1           0        4.212517    0.077877   -0.055341
     15          1           0        3.826343    1.495169    0.919089
     16          1           0       -2.325635    1.928568   -0.927787
     17          1           0        3.347755   -0.688606    2.135023
     18          1           0        1.912652    0.307934    1.943353
     19          1           0        1.662190    1.743685   -0.232186
     20          1           0        2.953082    1.668378   -1.440590
     21          1           0       -1.862356    0.730463    1.846532
     22          1           0       -3.094138    1.913924    1.413366
     23          1           0       -2.693248   -0.516695   -1.821362
     24          1           0       -1.509466   -1.751926   -1.360174
     25          1           0        2.714122   -2.049840    0.172723
     26          1           0        1.351615   -2.016718    1.291996
     27          1           0        0.722944   -1.639017   -1.126449
     28          1           0       -4.164053    0.285387   -0.109164
     29          1           0       -4.011885   -0.429352    1.505988
     30          1           0       -0.926038    2.226676    0.099385
     31          1           0       -0.523883    0.545749   -1.733493
 ---------------------------------------------------------------------

 SCF Done:  E(RM062X) =  -617.504500989     A.U. after    1 cycles

 The electronic state is 1-A.
 Alpha  occ. eigenvalues --  -19.63029 -19.62920 -19.62845 -10.63436 -10.58618
 Alpha  occ. eigenvalues --  -10.58059 -10.57894 -10.57739 -10.53266 -10.53047
 Alpha  occ. eigenvalues --  -10.52967 -10.52904 -10.52851  -1.20073  -1.16420
 Alpha  occ. eigenvalues --   -1.13148  -0.91028  -0.89666  -0.86948  -0.84617
 Alpha  occ. eigenvalues --   -0.74516  -0.74008  -0.72746  -0.71394  -0.66155
 Alpha  occ. eigenvalues --   -0.62734  -0.59407  -0.58470  -0.57875  -0.55734
 Alpha  occ. eigenvalues --   -0.54243  -0.52918  -0.52017  -0.50727  -0.49835
 Alpha  occ. eigenvalues --   -0.48275  -0.46616  -0.46105  -0.45718  -0.45167
 Alpha  occ. eigenvalues --   -0.43714  -0.43106  -0.40916  -0.40087  -0.38678
 Alpha  occ. eigenvalues --   -0.38487  -0.37643  -0.36308  -0.35370  -0.33330
 Alpha  occ. eigenvalues --   -0.31804
 Alpha virt. eigenvalues --   -0.00148   0.00832   0.00876   0.01030   0.02238
 Alpha virt. eigenvalues --    0.02521   0.02719   0.03178   0.03415   0.04600
 Alpha virt. eigenvalues --    0.04843   0.04912   0.05316   0.05871   0.07217

 Mulliken charges:
               1
     1  C   -0.354376
     2  C   -0.090600
     3  C   -0.327821
     4  C   -0.336594
     5  C   -0.216961
     6  O   -0.298777
     7  C   -0.117085
     8  C   -0.061874
     9  C   -0.300013
    10  C   -0.395685
    11  O   -0.293419
    12  O   -0.212366
    13  C   -0.337734
    14  H    0.165095
    15  H    0.171088
    16  H    0.212382
    17  H    0.182658
    18  H    0.176629
    19  H    0.104002
    20  H    0.204879
    21  H    0.165993
    22  H    0.177969
    23  H    0.179769
    24  H    0.198754
    25  H    0.188098
    26  H    0.177636
    27  H    0.245228
    28  H    0.147801
    29  H    0.199572
    30  H    0.158906
    31  H    0.286845
 Sum of Mulliken charges =  -0.00000

 Dipole moment (field-independent basis, Debye):
    X=              0.2275    Y=              2.1152    Z=             -0.1436  Tot=              2.1322
 Quadrupole moment (field-independent basis, Debye-Ang):
   XX=            -74.7742   YY=            -78.9739   ZZ=            -81.0056
   XY=             -5.3062   XZ=              4.5220   YZ=              1.0853

  Exact polarizability: 170.297   0.507 157.587  -0.718   0.330 155.184
 Approx polarizability: 145.068  -0.857 142.697  -1.384   0.452 143.101

                      1                      2                      3
                      A                      A                      A
 Frequencies --     31.6651                61.5018                77.9863
 Red. masses --      3.6937                 3.8438                 3.5166
 Frc consts  --      0.0022                 0.0086                 0.0126
 IR Inten    --      1.0499                 2.3761                 1.8925

                      4                      5                      6
                      A                      A                      A
 Frequencies --    151.4750               159.8197               241.2515
 Red. masses --      3.2961                 3.5323                 2.6705
 Frc consts  --      0.0446                 0.0532                 0.0916
 IR Inten    --      6.5142                 0.5344                 2.5085

                      7                      8                      9
                      A                      A                      A
 Frequencies --    248.3705               282.4757               343.8086
 Red. masses --      2.7465                 2.3644                 2.1605
 Frc consts  --      0.0998                 0.1112                 0.1505
 IR Inten    --      4.7188                10.0805                 3.3775

                     10                     11                     12
                      A                      A                      A
 Frequencies --    379.7811               407.1702               433.8251
 Red. masses --      2.1914                 2.4045                 3.4168
 Frc consts  --      0.1862                 0.2349                 0.3789
 IR Inten    --      3.8828                 2.4586                11.1247

                     13                     14                     15
                      A                      A                      A
 Frequencies --    438.6640               507.2487               520.7563
 Red. masses --      2.1520                 3.4397                 2.3884
 Frc consts  --      0.2440                 0.5215                 0.3816
 IR Inten    --      2.0099                15.9056                 4.4761

                     16                     17                     18
                      A                      A                      A
 Frequencies --    530.3390               578.5567               673.2348
 Red. masses --      2.3758                 3.1921                 2.6307
 Frc consts  --      0.3937                 0.6295                 0.7025
 IR Inten    --      3.9731                 7.0839                 4.9505

                     19                     20                     21
                      A                      A                      A
 Frequencies --    751.2295               832.5853               838.1461
 Red. masses --      2.5654                 1.5309                 3.6392
 Frc consts  --      0.8530                 0.6253                 1.5063
 IR Inten    --      6.5632                 2.3743                16.4034

                     22                     23                     24
                      A                      A                      A
 Frequencies --    849.2445               869.6509               877.3763
 Red. masses --      3.5047                 1.9865                 1.7089
 Frc consts  --      1.4893                 0.8852                 0.7751
 IR Inten    --      2.8521                13.0254                14.2019

                     25                     26                     27
                      A                      A                      A
 Frequencies --    895.8003               905.9849               908.8702
 Red. masses --      2.5085                 2.6109                 2.4236
 Frc consts  --      1.1860                 1.2626                 1.1796
 IR Inten    --     33.7644                37.5912                21.5938

                     28                     29                     30
                      A                      A                      A
 Frequencies --    930.0071               951.1343              1006.4856
 Red. masses --      1.7833                 1.6643                 1.6776
 Frc consts  --      0.9087                 0.8871                 1.0013
 IR Inten    --     13.1804                11.3483                26.5310

                     31                     32                     33
                      A                      A                      A
 Frequencies --   1033.9116              1043.3459              1054.4877
 Red. masses --      2.1560                 2.1730                 2.5505
 Frc consts  --      1.3579                 1.3937                 1.6710
 IR Inten    --      6.0925                79.3851               148.5917

                     34                     35                     36
                      A                      A                      A
 Frequencies --   1060.4099              1067.4686              1073.9634
 Red. masses --      1.9584                 1.7232                 2.3832
 Frc consts  --      1.2975                 1.1569                 1.6195
 IR Inten    --    112.4701                42.9288                94.9311

                     37                     38                     39
                      A                      A                      A
 Frequencies --   1105.8027              1147.2120              1154.0566
 Red. masses --      1.5491                 2.2207                 2.8790
 Frc consts  --      1.1161                 1.7220                 2.2591
 IR Inten    --     28.1091                87.4965               107.2966

                     40                     41                     42
                      A                      A                      A
 Frequencies --   1168.8738              1182.5151              1211.9810
 Red. masses --      3.5258                 2.4757                 1.4297
 Frc consts  --      2.8382                 2.0397                 1.2373
 IR Inten    --    154.0598                20.5425                14.4082

                     43                     44                     45
                      A                      A                      A
 Frequencies --   1231.7605              1235.0479              1248.2903
 Red. masses --      1.4785                 1.5194                 1.8075
 Frc consts  --      1.3217                 1.3655                 1.6594
 IR Inten    --     57.7378                46.1167                40.4863

                     46                     47                     48
                      A                      A                      A
 Frequencies --   1287.6478              1303.1900              1319.6229
 Red. masses --      1.2118                 1.1326                 1.1491
 Frc consts  --      1.1837                 1.1333                 1.1789
 IR Inten    --     24.3672                 7.1989                 7.4018

                     49                     50                     51
                      A                      A                      A
 Frequencies --   1337.7777              1357.7074              1367.1539
 Red. masses --      1.2159                 1.3447                 1.3041
 Frc consts  --      1.2821                 1.4604                 1.4362
 IR Inten    --     10.8504                20.2127                 0.6157

                     52                     53                     54
                      A                      A                      A
 Frequencies --   1368.6405              1379.8850              1386.5186
 Red. masses --      1.6688                 1.3287                 1.4758
 Frc consts  --      1.8417                 1.4906                 1.6715
 IR Inten    --      8.1859                36.5365                 2.9425

                     55                     56                     57
                      A                      A                      A
 Frequencies --   1392.0676              1394.9812              1402.9855
 Red. masses --      1.6631                 1.4747                 1.3553
 Frc consts  --      1.8988                 1.6908                 1.5718
 IR Inten    --      9.2670                19.6518                 4.3112

                     58                     59                     60
                      A                      A                      A
 Frequencies --   1407.0571              1425.7212              1428.9714
 Red. masses --      1.3920                 1.4800                 1.3783
 Frc consts  --      1.6238                 1.7725                 1.6582
 IR Inten    --      9.9278                19.2557                 4.3363

                     61                     62                     63
                      A                      A                      A
 Frequencies --   1436.8144              1475.6212              1475.9115
 Red. masses --      1.3040                 1.0874                 1.1060
 Frc consts  --      1.5861                 1.3951                 1.4194
 IR Inten    --      5.5637                 6.2529                 4.7453

                     64                     65                     66
                      A                      A                      A
 Frequencies --   1481.5641              1484.7712              1492.8334
 Red. masses --      1.0853                 1.1190                 1.0860
 Frc consts  --      1.4036                 1.4535                 1.4260
 IR Inten    --      8.1764                15.5037                 4.2638

                     67                     68                     69
                      A                      A                      A
 Frequencies --   1494.3214              1508.6883              1510.3300
 Red. masses --      1.1095                 1.0938                 1.1006
 Frc consts  --      1.4598                 1.4668                 1.4792
 IR Inten    --     13.7248                 5.6258                 6.9328

                     70                     71                     72
                      A                      A                      A
 Frequencies --   3012.1431              3021.9603              3054.6621
 Red. masses --      1.0707                 1.0698                 1.0687
 Frc consts  --      5.7236                 5.7564                 5.8753
 IR Inten    --     78.3650                65.0538                46.4639

                     73                     74                     75
                      A                      A                      A
 Frequencies --   3063.1430              3067.6895              3070.8094
 Red. masses --      1.0626                 1.0655                 1.0735
 Frc consts  --      5.8742                 5.9079                 5.9643
 IR Inten    --     43.3825                17.6254                29.3592

                     76                     77                     78
                      A                      A                      A
 Frequencies --   3073.0862              3077.6848              3082.1952
 Red. masses --      1.0664                 1.0606                 1.0718
 Frc consts  --      5.9336                 5.9188                 5.9990
 IR Inten    --     24.4926                25.3643                59.6555

                     79                     80                     81
                      A                      A                      A
 Frequencies --   3085.5571              3113.1150              3116.7309
 Red. masses --      1.0813                 1.0980                 1.1000
 Frc consts  --      6.0652                 6.2694                 6.2957
 IR Inten    --     65.3172                38.1540                35.7966

                     82                     83                     84
                      A                      A                      A
 Frequencies --   3119.1049              3124.1744              3126.7918
 Red. masses --      1.1023                 1.1030                 1.0937
 Frc consts  --      6.3182                 6.3431                 6.3001
 IR Inten    --     60.0715                66.3928                36.1684

                     85                     86                     87
                      A                      A                      A
 Frequencies --   3130.4518              3131.6760              3134.2207
 Red. masses --      1.1038                 1.0954                 1.0989
 Frc consts  --      6.3730                 6.3296                 6.3601
 IR Inten    --     42.4286                44.0466                45.9449

 - Thermochemistry -
 -------------------
 Temperature   298.150 Kelvin.  Pressure   1.00000 Atm.
 Atom     1 has atomic number  6 and mass  12.00000

 Molecular mass:   186.12559 amu.
 Principal axes and moments of inertia in atomic units:
                           1         2         3
     Eigenvalues --  1065.177463960.436974045.35376
           X            0.99993  -0.00862   0.00860
           Y            0.00835   0.99947   0.03141
           Z           -0.00886  -0.03134   0.99947
 This molecule is an asymmetric top.
 Rotational symmetry number  1.
 Warning -- assumption of classical behavior for rotation
           may cause significant error
 Rotational temperatures (Kelvin)      0.08131     0.02187     0.02141
 Rotational constants (GHZ):           1.69431     0.45569     0.44613
 Zero-point vibrational energy     737076.4 (Joules/Mol)
                                  176.16549 (Kcal/Mol)
 Warning -- explicit consideration of  17 degrees of freedom as
           vibrations may cause significant error
 Vibrational temperatures:     45.56    88.49   112.20   217.94   229.94
          (Kelvin)            347.11   357.35   406.42   494.66   546.42
                              585.83   624.18   631.14   729.82   749.25
                              763.04   832.41   968.63  1080.85  1197.90
                             1205.91  1221.87  1251.23  1262.35  1288.86
                             1303.51  1307.66  1338.07  1368.47  1448.11
                             1487.57  1501.14  1517.17  1525.69  1535.85
                             1545.19  1591.00  1650.58  1660.43  1681.75
                             1701.38  1743.77  1772.23  1776.96  1796.01
                             1852.64  1875.00  1898.64  1924.76  1953.44
                             1967.03  1969.17  1985.35  1994.89  2002.87
                             2007.07  2018.58  2024.44  2051.29  2055.97
                             2067.26  2123.09  2123.51  2131.64  2136.25
                             2147.85  2150.00  2170.67  2173.03  4333.80
                             4347.93  4394.98  4407.18  4413.72  4418.21
                             4421.49  4428.10  4434.59  4439.43  4479.08
                             4484.28  4487.70  4494.99  4498.76  4504.02
                             4505.78  4509.44

 Zero-point correction=                           0.280738 (Hartree/Particle)
 Thermal correction to Energy=                    0.292427
 Thermal correction to Enthalpy=                  0.293371
 Thermal correction to Gibbs Free Energy=         0.242185
 Sum of electronic and zero-point Energies=           -617.223763
 Sum of electronic and thermal Energies=              -617.212074
 Sum of electronic and thermal Enthalpies=            -617.211130
 Sum of electronic and thermal Free Energies=         -617.262316

                     E (Thermal)             CV                S
                      KCal/Mol        Cal/Mol-Kelvin    Cal/Mol-Kelvin
 Total                  183.501             46.506            107.730
 Electronic               0.000              0.000              0.000
 Translational            0.889              2.981             41.570
 Rotational               0.889              2.981             31.212
 Vibrational            181.723             40.545             34.948
 Vibration     1          0.594              1.983              5.722
 Vibration     2          0.597              1.973              4.408
 Vibration     3          0.599              1.964              3.941
 Vibration     4          0.619              1.901              2.654
 Vibration     5          0.622              1.892              2.552
 Vibration     6          0.658              1.777              1.794
 Vibration     7          0.662              1.765              1.742
 Vibration     8          0.682              1.706              1.519
 Vibration     9          0.723              1.588              1.194
 Vibration    10          0.750              1.513              1.040
 Vibration    11          0.772              1.455              0.937
 Vibration    12          0.795              1.397              0.846
 Vibration    13          0.799              1.386              0.831
 Vibration    14          0.862              1.234              0.640
 Vibration    15          0.876              1.204              0.608
 Vibration    16          0.885              1.183              0.586
 Vibration    17          0.935              1.078              0.488

 Optimization completed.
    -- Stationary point found.
 Normal termination of Gaussian 16 at Sun Nov  4 22:59:17 2018.
