 Gaussian 16, Revision A.03,
 Gaussian 16:  ES64L-G16RevA.03 25-Dec-2016

 ----------------------------------------------------------------------
 #M062X/6-311++G(2d,2p) opt=ModRedundant freq=noraman SCRF=(Solvent=Wat
 er)
 ----------------------------------------------------------------------

 ----------------------------
 D_1a_4a_L_PSI.inp_extract_24
 ----------------------------
 Symbolic Z-matrix:
 Charge =  0 Multiplicity = 1

 SCF Done:  E(RM062X) =  -617.502021129     A.U. after   13 cycles
 SCF Done:  E(RM062X) =  -617.503985440     A.U. after   11 cycles
 SCF Done:  E(RM062X) =  -617.504267918     A.U. after   10 cycles
 SCF Done:  E(RM062X) =  -617.504344309     A.U. after   10 cycles
 SCF Done:  E(RM062X) =  -617.504349827     A.U. after    8 cycles
 SCF Done:  E(RM062X) =  -617.504351457     A.U. after    8 cycles
 SCF Done:  E(RM062X) =  -617.504351565     A.U. after    7 cycles
 Optimization completed.
    -- Stationary point found.
 Normal termination of Gaussian 16 at Sun Nov  4 22:00:51 2018.

 ----------------------------------------------------------------------
 #N Geom=AllCheck Guess=TCheck SCRF=Check GenChk RM062X/6-311++G(2d,2p)
  Freq
 ----------------------------------------------------------------------

 Structure from the checkpoint file:  "D_1a_4a_L_PSI.inp_extract_24.chk"
 ----------------------------
 D_1a_4a_L_PSI.inp_extract_24
 ----------------------------
 Charge =  0 Multiplicity = 1

                         Standard orientation:
 ---------------------------------------------------------------------
 Center     Atomic      Atomic             Coordinates (Angstroms)
 Number     Number       Type             X           Y           Z
 ---------------------------------------------------------------------
      1          6           0        3.010671    0.935139    0.654942
      2          6           0        1.232273   -0.865032   -0.722746
      3          6           0       -1.458975    0.951902   -0.993381
      4          6           0        2.601273   -0.373167    1.328093
      5          6           0       -3.086270    0.627303    0.869241
      6          8           0       -2.692948   -0.733856    0.983718
      7          6           0        1.917680    1.375661   -0.303101
      8          6           0       -1.131383   -0.536448   -0.879304
      9          6           0       -1.943320    1.487585    0.353494
     10          6           0       -2.310090   -1.276832   -0.266626
     11          8           0        1.632190    0.370231   -1.276650
     12          8           0        0.003816   -0.776638   -0.049468
     13          6           0        2.263291   -1.406152    0.255163
     14          1           0        3.939807    0.791516    0.098185
     15          1           0        3.182098    1.721957    1.390070
     16          1           0       -2.254876    1.063544   -1.734725
     17          1           0        3.397712   -0.746261    1.971001
     18          1           0        1.726748   -0.199682    1.958914
     19          1           0        1.006886    1.610773    0.254951
     20          1           0        2.208873    2.257030   -0.870537
     21          1           0       -1.129888    1.461318    1.081195
     22          1           0       -2.275294    2.522046    0.262708
     23          1           0       -3.154920   -1.235647   -0.964987
     24          1           0       -2.047471   -2.317749   -0.089719
     25          1           0        3.161046   -1.648553   -0.316530
     26          1           0        1.883055   -2.329854    0.688988
     27          1           0        1.125734   -1.525868   -1.586816
     28          1           0       -3.946197    0.697873    0.190794
     29          1           0       -3.404876    0.938091    1.862015
     30          1           0       -0.592806    1.498416   -1.358923
     31          1           0       -0.940998   -0.956603   -1.872037
 ---------------------------------------------------------------------

 SCF Done:  E(RM062X) =  -617.504351565     A.U. after    1 cycles

 The electronic state is 1-A.
 Alpha  occ. eigenvalues --  -19.63103 -19.62972 -19.62863 -10.63499 -10.58835
 Alpha  occ. eigenvalues --  -10.58049 -10.57898 -10.57795 -10.53040 -10.52997
 Alpha  occ. eigenvalues --  -10.52990 -10.52922 -10.52886  -1.19999  -1.16449
 Alpha  occ. eigenvalues --   -1.13282  -0.90997  -0.89672  -0.87195  -0.84512
 Alpha  occ. eigenvalues --   -0.74385  -0.73872  -0.72812  -0.71700  -0.66312
 Alpha  occ. eigenvalues --   -0.62784  -0.59974  -0.57885  -0.57625  -0.55274
 Alpha  occ. eigenvalues --   -0.54722  -0.52948  -0.51960  -0.50832  -0.50200
 Alpha  occ. eigenvalues --   -0.48035  -0.46868  -0.46361  -0.45568  -0.44715
 Alpha  occ. eigenvalues --   -0.43798  -0.42863  -0.41227  -0.40156  -0.39273
 Alpha  occ. eigenvalues --   -0.38234  -0.37273  -0.36159  -0.35393  -0.33482
 Alpha  occ. eigenvalues --   -0.31783
 Alpha virt. eigenvalues --   -0.00152   0.00815   0.00850   0.01133   0.02297
 Alpha virt. eigenvalues --    0.02577   0.02769   0.03205   0.03436   0.04845
 Alpha virt. eigenvalues --    0.04862   0.05001   0.05469   0.05720   0.07542

 Mulliken charges:
               1
     1  C   -0.350475
     2  C   -0.118706
     3  C   -0.447742
     4  C   -0.323547
     5  C   -0.260186
     6  O   -0.306668
     7  C   -0.128799
     8  C    0.133124
     9  C   -0.259690
    10  C   -0.376584
    11  O   -0.280242
    12  O   -0.255751
    13  C   -0.364133
    14  H    0.167684
    15  H    0.175832
    16  H    0.234468
    17  H    0.191001
    18  H    0.171542
    19  H    0.092997
    20  H    0.218337
    21  H    0.156113
    22  H    0.181190
    23  H    0.178837
    24  H    0.199540
    25  H    0.192314
    26  H    0.176054
    27  H    0.227334
    28  H    0.148375
    29  H    0.196343
    30  H    0.212803
    31  H    0.218634
 Sum of Mulliken charges =  -0.00000

 Dipole moment (field-independent basis, Debye):
    X=              0.3324    Y=              1.1970    Z=             -1.1567  Tot=              1.6974
 Quadrupole moment (field-independent basis, Debye-Ang):
   XX=            -75.9022   YY=            -75.9169   ZZ=            -83.4870
   XY=             -4.0327   XZ=              7.9735   YZ=              5.2328

  Exact polarizability: 167.969  -0.476 162.589   1.299   3.214 153.727
 Approx polarizability: 144.156  -0.599 144.252  -0.034   1.799 143.480

                      1                      2                      3
                      A                      A                      A
 Frequencies --     53.4540                76.2845               104.6848
 Red. masses --      3.5427                 3.5862                 3.9494
 Frc consts  --      0.0060                 0.0123                 0.0255
 IR Inten    --      1.9469                 1.2460                 5.0826

                      4                      5                      6
                      A                      A                      A
 Frequencies --    149.3368               181.6356               240.9572
 Red. masses --      3.3742                 3.0032                 3.0815
 Frc consts  --      0.0443                 0.0584                 0.1054
 IR Inten    --      1.9103                 4.3654                 2.0581

                      7                      8                      9
                      A                      A                      A
 Frequencies --    268.1731               279.7762               335.2910
 Red. masses --      3.7640                 2.3064                 2.0665
 Frc consts  --      0.1595                 0.1064                 0.1369
 IR Inten    --      4.4285                 5.3422                 0.4268

                     10                     11                     12
                      A                      A                      A
 Frequencies --    380.1309               402.0193               437.7234
 Red. masses --      2.2162                 2.1106                 2.1918
 Frc consts  --      0.1887                 0.2010                 0.2474
 IR Inten    --      1.2605                13.5440                 0.7997

                     13                     14                     15
                      A                      A                      A
 Frequencies --    440.8968               483.9578               528.8520
 Red. masses --      3.3076                 3.6732                 2.4117
 Frc consts  --      0.3788                 0.5069                 0.3974
 IR Inten    --     11.8780                11.9644                 7.6843

                     16                     17                     18
                      A                      A                      A
 Frequencies --    534.0133               598.3595               673.4925
 Red. masses --      2.1774                 3.3463                 2.7520
 Frc consts  --      0.3658                 0.7059                 0.7355
 IR Inten    --      3.9961                12.7357                 2.6404

                     19                     20                     21
                      A                      A                      A
 Frequencies --    740.6151               832.9601               837.6517
 Red. masses --      2.5439                 1.9523                 2.4233
 Frc consts  --      0.8221                 0.7981                 1.0018
 IR Inten    --      1.4478                 1.2584                12.4077

                     22                     23                     24
                      A                      A                      A
 Frequencies --    853.5761               872.2064               881.0997
 Red. masses --      3.4753                 2.0385                 1.6622
 Frc consts  --      1.4918                 0.9137                 0.7603
 IR Inten    --      1.9854                 9.1795                12.8815

                     25                     26                     27
                      A                      A                      A
 Frequencies --    896.7680               903.4709               911.5352
 Red. masses --      2.4889                 2.4811                 2.2697
 Frc consts  --      1.1793                 1.1932                 1.1111
 IR Inten    --     12.8994                13.1265                69.4866

                     28                     29                     30
                      A                      A                      A
 Frequencies --    935.3962               949.7878              1009.4909
 Red. masses --      1.9901                 1.5806                 1.7527
 Frc consts  --      1.0259                 0.8401                 1.0523
 IR Inten    --     10.5834                 9.2135                54.7063

                     31                     32                     33
                      A                      A                      A
 Frequencies --   1037.0320              1040.6953              1060.1891
 Red. masses --      2.2573                 2.0469                 2.7342
 Frc consts  --      1.4303                 1.3062                 1.8107
 IR Inten    --      4.3006                87.5224               117.4823

                     34                     35                     36
                      A                      A                      A
 Frequencies --   1062.0769              1071.5184              1079.0023
 Red. masses --      1.7184                 1.7183                 2.3869
 Frc consts  --      1.1421                 1.1624                 1.6373
 IR Inten    --     48.6280                23.9837               130.0394

                     37                     38                     39
                      A                      A                      A
 Frequencies --   1093.9550              1144.4711              1158.0674
 Red. masses --      1.5734                 2.4889                 2.6950
 Frc consts  --      1.1094                 1.9208                 2.1295
 IR Inten    --     42.8278                59.5318               163.8862

                     40                     41                     42
                      A                      A                      A
 Frequencies --   1177.6182              1181.9660              1213.3157
 Red. masses --      3.6898                 2.5114                 1.4245
 Frc consts  --      3.0148                 2.0671                 1.2355
 IR Inten    --    195.5636                18.0433                24.6340

                     43                     44                     45
                      A                      A                      A
 Frequencies --   1228.7220              1235.5108              1244.5994
 Red. masses --      1.3800                 1.6003                 1.8656
 Frc consts  --      1.2276                 1.4393                 1.7027
 IR Inten    --     54.9879                37.5612                29.1116

                     46                     47                     48
                      A                      A                      A
 Frequencies --   1289.6335              1303.1935              1323.7462
 Red. masses --      1.2107                 1.1384                 1.1519
 Frc consts  --      1.1863                 1.1391                 1.1892
 IR Inten    --     26.5501                 8.2995                 8.7626

                     49                     50                     51
                      A                      A                      A
 Frequencies --   1338.0512              1358.4455              1360.0666
 Red. masses --      1.2446                 1.3246                 1.4498
 Frc consts  --      1.3129                 1.4402                 1.5801
 IR Inten    --     13.8257                22.2311                 4.6121

                     52                     53                     54
                      A                      A                      A
 Frequencies --   1366.5259              1377.9256              1387.9689
 Red. masses --      1.4749                 1.3083                 1.4950
 Frc consts  --      1.6228                 1.4636                 1.6969
 IR Inten    --     10.3305                37.7302                 0.9250

                     55                     56                     57
                      A                      A                      A
 Frequencies --   1391.5447              1396.2079              1403.9770
 Red. masses --      1.5164                 1.5788                 1.4018
 Frc consts  --      1.7301                 1.8133                 1.6280
 IR Inten    --      6.7981                31.3297                 6.3924

                     58                     59                     60
                      A                      A                      A
 Frequencies --   1405.4268              1427.8853              1434.0349
 Red. masses --      1.3299                 1.3629                 1.4279
 Frc consts  --      1.5477                 1.6372                 1.7301
 IR Inten    --      7.1886                19.3749                 7.0950

                     61                     62                     63
                      A                      A                      A
 Frequencies --   1443.3982              1475.5453              1476.5975
 Red. masses --      1.3203                 1.0916                 1.1055
 Frc consts  --      1.6207                 1.4003                 1.4202
 IR Inten    --      4.0820                 6.8699                 4.6344

                     64                     65                     66
                      A                      A                      A
 Frequencies --   1483.1263              1490.2339              1495.1895
 Red. masses --      1.0861                 1.1007                 1.1044
 Frc consts  --      1.4076                 1.4403                 1.4547
 IR Inten    --      8.3518                11.5635                18.9380

                     67                     68                     69
                      A                      A                      A
 Frequencies --   1496.2677              1511.2505              1512.3201
 Red. masses --      1.1007                 1.0932                 1.1013
 Frc consts  --      1.4520                 1.4711                 1.4840
 IR Inten    --      1.7462                 3.9985                 8.9957

                     70                     71                     72
                      A                      A                      A
 Frequencies --   3011.7061              3024.0898              3048.6876
 Red. masses --      1.0709                 1.0696                 1.0828
 Frc consts  --      5.7229                 5.7631                 5.9296
 IR Inten    --     75.8106                57.6165                35.0383

                     73                     74                     75
                      A                      A                      A
 Frequencies --   3058.9270              3062.0618              3065.0446
 Red. masses --      1.0695                 1.0805                 1.0635
 Frc consts  --      5.8959                 5.9693                 5.8863
 IR Inten    --     63.1713                26.1387                37.9340

                     76                     77                     78
                      A                      A                      A
 Frequencies --   3067.2812              3069.5395              3074.7506
 Red. masses --      1.0719                 1.0624                 1.0605
 Frc consts  --      5.9418                 5.8975                 5.9070
 IR Inten    --     57.7523                32.5448                48.2833

                     79                     80                     81
                      A                      A                      A
 Frequencies --   3080.9581              3113.7379              3118.4263
 Red. masses --      1.0657                 1.0975                 1.1024
 Frc consts  --      5.9599                 6.2694                 6.3160
 IR Inten    --     60.7690                36.4422                65.4965

                     82                     83                     84
                      A                      A                      A
 Frequencies --   3120.1572              3131.4507              3132.1574
 Red. masses --      1.1023                 1.0939                 1.1023
 Frc consts  --      6.3229                 6.3200                 6.3712
 IR Inten    --     53.7718                53.5061                36.1108

                     85                     86                     87
                      A                      A                      A
 Frequencies --   3134.0491              3136.3577              3148.1251
 Red. masses --      1.0997                 1.0950                 1.0941
 Frc consts  --      6.3643                 6.3462                 6.3888
 IR Inten    --     53.7462                30.9883                16.3765

 - Thermochemistry -
 -------------------
 Temperature   298.150 Kelvin.  Pressure   1.00000 Atm.
 Atom     1 has atomic number  6 and mass  12.00000

 Molecular mass:   186.12559 amu.
 Principal axes and moments of inertia in atomic units:
                           1         2         3
     Eigenvalues --  1189.274953531.963443750.03082
           X            0.99981  -0.01024   0.01678
           Y            0.00920   0.99811   0.06076
           Z           -0.01737  -0.06059   0.99801
 This molecule is an asymmetric top.
 Rotational symmetry number  1.
 Warning -- assumption of classical behavior for rotation
           may cause significant error
 Rotational temperatures (Kelvin)      0.07283     0.02452     0.02310
 Rotational constants (GHZ):           1.51751     0.51097     0.48126
 Zero-point vibrational energy     737906.9 (Joules/Mol)
                                  176.36399 (Kcal/Mol)
 Warning -- explicit consideration of  17 degrees of freedom as
           vibrations may cause significant error
 Vibrational temperatures:     76.91   109.76   150.62   214.86   261.33
          (Kelvin)            346.68   385.84   402.54   482.41   546.92
                              578.42   629.79   634.35   696.31   760.90
                              768.33   860.91   969.01  1065.58  1198.44
                             1205.19  1228.11  1254.91  1267.71  1290.25
                             1299.89  1311.50  1345.83  1366.53  1452.43
                             1492.06  1497.33  1525.38  1528.09  1541.68
                             1552.44  1573.96  1646.64  1666.20  1694.33
                             1700.59  1745.69  1767.86  1777.62  1790.70
                             1855.50  1875.00  1904.58  1925.16  1954.50
                             1956.83  1966.13  1982.53  1996.98  2002.12
                             2008.83  2020.01  2022.10  2054.41  2063.26
                             2076.73  2122.98  2124.49  2133.89  2144.11
                             2151.24  2152.80  2174.35  2175.89  4333.17
                             4350.99  4386.38  4401.11  4405.62  4409.92
                             4413.13  4416.38  4423.88  4432.81  4479.97
                             4486.72  4489.21  4505.46  4506.48  4509.20
                             4512.52  4529.45

 Zero-point correction=                           0.281054 (Hartree/Particle)
 Thermal correction to Energy=                    0.292564
 Thermal correction to Enthalpy=                  0.293509
 Thermal correction to Gibbs Free Energy=         0.243470
 Sum of electronic and zero-point Energies=           -617.223298
 Sum of electronic and thermal Energies=              -617.211787
 Sum of electronic and thermal Enthalpies=            -617.210843
 Sum of electronic and thermal Free Energies=         -617.260881

                     E (Thermal)             CV                S
                      KCal/Mol        Cal/Mol-Kelvin    Cal/Mol-Kelvin
 Total                  183.587             46.393            105.315
 Electronic               0.000              0.000              0.000
 Translational            0.889              2.981             41.570
 Rotational               0.889              2.981             31.133
 Vibrational            181.809             40.431             32.612
 Vibration     1          0.596              1.976              4.685
 Vibration     2          0.599              1.965              3.984
 Vibration     3          0.605              1.945              3.365
 Vibration     4          0.618              1.903              2.681
 Vibration     5          0.630              1.865              2.312
 Vibration     6          0.658              1.778              1.796
 Vibration     7          0.673              1.732              1.608
 Vibration     8          0.680              1.711              1.535
 Vibration     9          0.716              1.605              1.234
 Vibration    10          0.750              1.513              1.039
 Vibration    11          0.768              1.466              0.955
 Vibration    12          0.798              1.388              0.834
 Vibration    13          0.801              1.381              0.824
 Vibration    14          0.840              1.286              0.699
 Vibration    15          0.884              1.186              0.590
 Vibration    16          0.889              1.175              0.578
 Vibration    17          0.956              1.035              0.452

 Optimization completed.
    -- Stationary point found.
 Normal termination of Gaussian 16 at Sun Nov  4 22:58:21 2018.
