 Gaussian 16, Revision A.03,
 Gaussian 16:  ES64L-G16RevA.03 25-Dec-2016

 ----------------------------------------------------------------------
 #M062X/6-311++G(2d,2p) opt=ModRedundant freq=noraman SCRF=(Solvent=Wat
 er)
 ----------------------------------------------------------------------

 ----------------------------
 D_1a_4a_L_PSI.inp_extract_13
 ----------------------------
 Symbolic Z-matrix:
 Charge =  0 Multiplicity = 1

 SCF Done:  E(RM062X) =  -617.495408871     A.U. after   12 cycles
 SCF Done:  E(RM062X) =  -617.496391573     A.U. after   12 cycles
 SCF Done:  E(RM062X) =  -617.497487857     A.U. after   11 cycles
 SCF Done:  E(RM062X) =  -617.497716854     A.U. after   10 cycles
 SCF Done:  E(RM062X) =  -617.497777074     A.U. after    9 cycles
 SCF Done:  E(RM062X) =  -617.497791490     A.U. after    9 cycles
 SCF Done:  E(RM062X) =  -617.497795131     A.U. after    9 cycles
 SCF Done:  E(RM062X) =  -617.497796342     A.U. after    9 cycles
 Optimization completed.
    -- Stationary point found.
 Normal termination of Gaussian 16 at Mon Nov  5 04:31:28 2018.

 ----------------------------------------------------------------------
 #N Geom=AllCheck Guess=TCheck SCRF=Check GenChk RM062X/6-311++G(2d,2p)
  Freq
 ----------------------------------------------------------------------

 Structure from the checkpoint file:  "D_1a_4a_L_PSI.inp_extract_13.chk"
 ----------------------------
 D_1a_4a_L_PSI.inp_extract_13
 ----------------------------
 Charge =  0 Multiplicity = 1

                         Standard orientation:
 ---------------------------------------------------------------------
 Center     Atomic      Atomic             Coordinates (Angstroms)
 Number     Number       Type             X           Y           Z
 ---------------------------------------------------------------------
      1          6           0       -3.455054   -0.304332    0.060279
      2          6           0       -0.682843    0.208718   -0.534171
      3          6           0        2.188126    1.062003    1.023832
      4          6           0       -2.940725    1.134682    0.062066
      5          6           0        3.053611   -0.264163   -0.898548
      6          8           0        1.964820   -1.170475   -0.777578
      7          6           0       -2.315636   -1.261262    0.371587
      8          6           0        1.081900    0.020774    1.186363
      9          6           0        2.670675    1.129625   -0.423486
     10          6           0        1.522338   -1.299464    0.563407
     11          8           0       -1.231642   -1.095135   -0.540995
     12          8           0       -0.165351    0.552777    0.727706
     13          6           0       -1.741073    1.246711   -0.877916
     14          1           0       -3.863635   -0.548485   -0.923451
     15          1           0       -4.251749   -0.439515    0.792552
     16          1           0        3.023057    0.773447    1.668054
     17          1           0       -3.725025    1.826134   -0.244483
     18          1           0       -2.638778    1.412415    1.073613
     19          1           0       -1.956381   -1.104969    1.392970
     20          1           0       -2.627174   -2.298922    0.272450
     21          1           0        1.885986    1.531594   -1.067583
     22          1           0        3.531965    1.792059   -0.511704
     23          1           0        2.341112   -1.686949    1.182220
     24          1           0        0.710163   -2.019674    0.558645
     25          1           0       -2.059718    1.062893   -1.905764
     26          1           0       -1.289871    2.237592   -0.838669
     27          1           0        0.103502    0.173944   -1.283200
     28          1           0        3.901136   -0.638416   -0.310244
     29          1           0        3.336303   -0.266548   -1.949092
     30          1           0        1.824209    2.028323    1.370846
     31          1           0        0.924358   -0.171997    2.249303
 ---------------------------------------------------------------------

 SCF Done:  E(RM062X) =  -617.497796342     A.U. after    1 cycles

 The electronic state is 1-A.
 Alpha  occ. eigenvalues --  -19.62909 -19.62738 -19.62491 -10.62945 -10.58905
 Alpha  occ. eigenvalues --  -10.58016 -10.58008 -10.57543 -10.53153 -10.53109
 Alpha  occ. eigenvalues --  -10.52839 -10.52790 -10.52731  -1.19445  -1.16326
 Alpha  occ. eigenvalues --   -1.12846  -0.90813  -0.89554  -0.87095  -0.84568
 Alpha  occ. eigenvalues --   -0.74811  -0.74030  -0.72834  -0.70846  -0.66250
 Alpha  occ. eigenvalues --   -0.62535  -0.59512  -0.58729  -0.56786  -0.54928
 Alpha  occ. eigenvalues --   -0.54098  -0.53087  -0.52322  -0.50058  -0.49600
 Alpha  occ. eigenvalues --   -0.48748  -0.46710  -0.45898  -0.45680  -0.45132
 Alpha  occ. eigenvalues --   -0.43274  -0.42443  -0.41822  -0.40067  -0.39421
 Alpha  occ. eigenvalues --   -0.38396  -0.37119  -0.36559  -0.33925  -0.32641
 Alpha  occ. eigenvalues --   -0.31923
 Alpha virt. eigenvalues --   -0.00186   0.00766   0.00883   0.01180   0.02275
 Alpha virt. eigenvalues --    0.02509   0.02706   0.03236   0.03468   0.04626
 Alpha virt. eigenvalues --    0.04777   0.05062   0.05396   0.05853   0.07393

 Mulliken charges:
               1
     1  C   -0.453058
     2  C   -0.256817
     3  C   -0.508086
     4  C   -0.293031
     5  C   -0.249445
     6  O   -0.298492
     7  C   -0.074911
     8  C    0.141987
     9  C   -0.258130
    10  C   -0.348984
    11  O   -0.270502
    12  O   -0.280603
    13  C   -0.383758
    14  H    0.162359
    15  H    0.171667
    16  H    0.207466
    17  H    0.185917
    18  H    0.178645
    19  H    0.142283
    20  H    0.203865
    21  H    0.147692
    22  H    0.195710
    23  H    0.199118
    24  H    0.243631
    25  H    0.185490
    26  H    0.175352
    27  H    0.355536
    28  H    0.163216
    29  H    0.200625
    30  H    0.169497
    31  H    0.245759
 Sum of Mulliken charges =  -0.00000

 Dipole moment (field-independent basis, Debye):
    X=              0.9349    Y=              1.5784    Z=              1.6220  Tot=              2.4487
 Quadrupole moment (field-independent basis, Debye-Ang):
   XX=            -69.0897   YY=            -82.6165   ZZ=            -79.6402
   XY=              2.7703   XZ=              1.3785   YZ=             -6.2231

  Exact polarizability: 171.431   3.040 157.362  -0.972  -3.435 154.834
 Approx polarizability: 145.683   2.157 141.315   0.107  -0.911 144.616

 ******    1 imaginary frequencies (negative Signs) ******

                      1                      2                      3
                      A                      A                      A
 Frequencies --    -15.4402                55.3488               104.7620
 Red. masses --      3.9161                 3.8402                 3.4680
 Frc consts  --      0.0006                 0.0069                 0.0224
 IR Inten    --      0.1822                 3.9541                 1.7574

                      4                      5                      6
                      A                      A                      A
 Frequencies --    117.1823               206.6721               210.6830
 Red. masses --      3.7477                 3.1501                 3.5322
 Frc consts  --      0.0303                 0.0793                 0.0924
 IR Inten    --      1.7939                 2.8960                 8.4732

                      7                      8                      9
                      A                      A                      A
 Frequencies --    259.1833               298.8873               332.7668
 Red. masses --      2.7398                 2.1672                 2.4431
 Frc consts  --      0.1084                 0.1141                 0.1594
 IR Inten    --      7.0645                 5.4779                 4.3525

                     10                     11                     12
                      A                      A                      A
 Frequencies --    380.4958               393.5094               426.2982
 Red. masses --      2.3312                 2.0285                 2.6189
 Frc consts  --      0.1988                 0.1851                 0.2804
 IR Inten    --      4.0373                 6.6176                 2.3492

                     13                     14                     15
                      A                      A                      A
 Frequencies --    448.5104               480.7342               519.7961
 Red. masses --      2.7165                 3.6383                 2.6663
 Frc consts  --      0.3220                 0.4954                 0.4245
 IR Inten    --     14.2264                 5.0538                 1.8283

                     16                     17                     18
                      A                      A                      A
 Frequencies --    533.4790               587.1234               677.4964
 Red. masses --      2.0146                 2.8868                 3.0396
 Frc consts  --      0.3378                 0.5863                 0.8220
 IR Inten    --      9.3240                14.6305                 3.7356

                     19                     20                     21
                      A                      A                      A
 Frequencies --    758.4420               803.5904               837.3791
 Red. masses --      2.3279                 2.9902                 1.7843
 Frc consts  --      0.7890                 1.1377                 0.7371
 IR Inten    --      4.5294                 5.6057                 9.4611

                     22                     23                     24
                      A                      A                      A
 Frequencies --    844.3727               863.1022               875.2563
 Red. masses --      3.0595                 2.0310                 1.9710
 Frc consts  --      1.2852                 0.8914                 0.8896
 IR Inten    --      5.4594                 7.9125                19.9033

                     25                     26                     27
                      A                      A                      A
 Frequencies --    893.5144               901.8218               912.1991
 Red. masses --      2.4585                 2.6053                 2.3475
 Frc consts  --      1.1564                 1.2484                 1.1509
 IR Inten    --     42.5888                 6.1395                45.9753

                     28                     29                     30
                      A                      A                      A
 Frequencies --    922.8526               952.6630               978.9119
 Red. masses --      1.8449                 1.7352                 1.8539
 Frc consts  --      0.9257                 0.9279                 1.0467
 IR Inten    --     17.2644                26.1375                49.5024

                     31                     32                     33
                      A                      A                      A
 Frequencies --   1035.3734              1038.2019              1055.8824
 Red. masses --      1.9753                 2.1739                 2.1459
 Frc consts  --      1.2476                 1.3805                 1.4096
 IR Inten    --      7.9282                22.6854               188.3457

                     34                     35                     36
                      A                      A                      A
 Frequencies --   1060.2669              1066.9986              1075.1967
 Red. masses --      1.8632                 1.7057                 2.2981
 Frc consts  --      1.2340                 1.1441                 1.5653
 IR Inten    --     80.3227                26.9971               106.8979

                     37                     38                     39
                      A                      A                      A
 Frequencies --   1104.1816              1146.2583              1152.0701
 Red. masses --      1.6352                 2.8976                 2.5009
 Frc consts  --      1.1746                 2.2431                 1.9557
 IR Inten    --     25.3574               171.4892                38.1168

                     40                     41                     42
                      A                      A                      A
 Frequencies --   1161.8704              1194.3278              1208.5604
 Red. masses --      2.5357                 3.2111                 1.4107
 Frc consts  --      2.0168                 2.6987                 1.2140
 IR Inten    --     52.9830               146.7308                18.8972

                     43                     44                     45
                      A                      A                      A
 Frequencies --   1222.8949              1233.5085              1242.2794
 Red. masses --      1.3239                 1.6338                 1.8674
 Frc consts  --      1.1665                 1.4646                 1.6980
 IR Inten    --     28.2761                39.8242                69.0764

                     46                     47                     48
                      A                      A                      A
 Frequencies --   1286.5279              1311.4724              1318.5422
 Red. masses --      1.2149                 1.1556                 1.1525
 Frc consts  --      1.1848                 1.1710                 1.1806
 IR Inten    --     16.2354                35.1949                 8.2188

                     49                     50                     51
                      A                      A                      A
 Frequencies --   1342.3716              1355.9606              1361.6169
 Red. masses --      1.2817                 1.3718                 1.4379
 Frc consts  --      1.3608                 1.4861                 1.5707
 IR Inten    --     30.9715                 9.7064                 3.7338

                     52                     53                     54
                      A                      A                      A
 Frequencies --   1370.2897              1383.0228              1388.0596
 Red. masses --      1.3862                 1.5030                 1.6054
 Frc consts  --      1.5335                 1.6939                 1.8224
 IR Inten    --     13.0465                 5.9942                 7.9383

                     55                     56                     57
                      A                      A                      A
 Frequencies --   1392.1342              1400.3211              1403.2714
 Red. masses --      1.5596                 1.3910                 1.3130
 Frc consts  --      1.7808                 1.6070                 1.5234
 IR Inten    --      0.7611                 1.4777                 7.2422

                     58                     59                     60
                      A                      A                      A
 Frequencies --   1410.0429              1413.1717              1430.9827
 Red. masses --      1.3529                 1.3245                 1.3578
 Frc consts  --      1.5848                 1.5585                 1.6381
 IR Inten    --     18.0438                 7.4446                 5.2184

                     61                     62                     63
                      A                      A                      A
 Frequencies --   1438.2678              1475.8183              1479.4776
 Red. masses --      1.2879                 1.1032                 1.0973
 Frc consts  --      1.5697                 1.4157                 1.4152
 IR Inten    --     19.7834                 4.6665                 6.3413

                     64                     65                     66
                      A                      A                      A
 Frequencies --   1482.2405              1487.1942              1491.3227
 Red. masses --      1.0862                 1.0870                 1.1031
 Frc consts  --      1.4060                 1.4165                 1.4455
 IR Inten    --      6.8780                15.6271                 9.9003

                     67                     68                     69
                      A                      A                      A
 Frequencies --   1495.7585              1509.2824              1510.6335
 Red. masses --      1.1071                 1.0934                 1.1000
 Frc consts  --      1.4594                 1.4674                 1.4789
 IR Inten    --     12.2776                 3.1234                 7.6533

                     70                     71                     72
                      A                      A                      A
 Frequencies --   3014.0163              3022.4670              3052.4143
 Red. masses --      1.0710                 1.0720                 1.0688
 Frc consts  --      5.7322                 5.7697                 5.8671
 IR Inten    --     77.1154                65.2468                53.5833

                     73                     74                     75
                      A                      A                      A
 Frequencies --   3060.2349              3061.7295              3073.0375
 Red. masses --      1.0672                 1.0625                 1.0630
 Frc consts  --      5.8883                 5.8682                 5.9144
 IR Inten    --     13.3596                50.8022                36.5610

                     76                     77                     78
                      A                      A                      A
 Frequencies --   3073.4434              3076.9328              3078.8676
 Red. masses --      1.0619                 1.0626                 1.0832
 Frc consts  --      5.9098                 5.9273                 6.0500
 IR Inten    --     23.1714                40.7444                71.7038

                     79                     80                     81
                      A                      A                      A
 Frequencies --   3111.5973              3116.5304              3118.0062
 Red. masses --      1.0978                 1.0981                 1.1022
 Frc consts  --      6.2623                 6.2842                 6.3133
 IR Inten    --     49.1935                37.4419                63.4907

                     82                     83                     84
                      A                      A                      A
 Frequencies --   3121.0358              3127.7082              3130.4591
 Red. masses --      1.1021                 1.1037                 1.0986
 Frc consts  --      6.3252                 6.3614                 6.3430
 IR Inten    --     53.7679                43.2258                49.9746

                     85                     86                     87
                      A                      A                      A
 Frequencies --   3132.4374              3149.2275              3167.4023
 Red. masses --      1.0941                 1.0868                 1.0922
 Frc consts  --      6.3251                 6.3504                 6.4559
 IR Inten    --     45.4646                29.9861                15.5906

 - Thermochemistry -
 -------------------
 Temperature   298.150 Kelvin.  Pressure   1.00000 Atm.
 Atom     1 has atomic number  6 and mass  12.00000

 Molecular mass:   186.12559 amu.
 Principal axes and moments of inertia in atomic units:
                           1         2         3
     Eigenvalues --  1061.104773497.088223776.29525
           X            0.99999   0.00434   0.00093
           Y           -0.00425   0.99678  -0.08012
           Z           -0.00128   0.08011   0.99679
 This molecule is an asymmetric top.
 Rotational symmetry number  1.
 Warning -- assumption of classical behavior for rotation
           may cause significant error
 Rotational temperatures (Kelvin)      0.08163     0.02477     0.02294
 Rotational constants (GHZ):           1.70081     0.51607     0.47791
    1 imaginary frequencies ignored.
 Zero-point vibrational energy     736901.1 (Joules/Mol)
                                  176.12358 (Kcal/Mol)
 Warning -- explicit consideration of  16 degrees of freedom as
           vibrations may cause significant error
 Vibrational temperatures:     79.63   150.73   168.60   297.35   303.13
          (Kelvin)            372.91   430.03   478.78   547.45   566.17
                              613.35   645.31   691.67   747.87   767.56
                              844.74   974.77  1091.23  1156.19  1204.80
                             1214.86  1241.81  1259.30  1285.57  1297.52
                             1312.45  1327.78  1370.67  1408.44  1489.67
                             1493.74  1519.18  1525.49  1535.17  1546.97
                             1588.67  1649.21  1657.57  1671.67  1718.37
                             1738.85  1759.47  1774.74  1787.36  1851.03
                             1886.92  1897.09  1931.37  1950.92  1959.06
                             1971.54  1989.86  1997.11  2002.97  2014.75
                             2018.99  2028.74  2033.24  2058.86  2069.35
                             2123.37  2128.64  2132.61  2139.74  2145.68
                             2152.06  2171.52  2173.46  4336.50  4348.66
                             4391.74  4403.00  4405.15  4421.42  4422.00
                             4427.02  4429.80  4476.89  4483.99  4486.12
                             4490.47  4500.07  4504.03  4506.88  4531.04
                             4557.19

 Zero-point correction=                           0.280671 (Hartree/Particle)
 Thermal correction to Energy=                    0.291492
 Thermal correction to Enthalpy=                  0.292437
 Thermal correction to Gibbs Free Energy=         0.244112
 Sum of electronic and zero-point Energies=           -617.217126
 Sum of electronic and thermal Energies=              -617.206304
 Sum of electronic and thermal Enthalpies=            -617.205360
 Sum of electronic and thermal Free Energies=         -617.253684

                     E (Thermal)             CV                S
                      KCal/Mol        Cal/Mol-Kelvin    Cal/Mol-Kelvin
 Total                  182.914             44.656            101.708
 Electronic               0.000              0.000              0.000
 Translational            0.889              2.981             41.570
 Rotational               0.889              2.981             31.017
 Vibrational            181.137             38.694             29.121
 Vibration     1          0.596              1.975              4.617
 Vibration     2          0.605              1.945              3.364
 Vibration     3          0.608              1.935              3.146
 Vibration     4          0.641              1.830              2.073
 Vibration     5          0.643              1.825              2.038
 Vibration     6          0.668              1.747              1.667
 Vibration     7          0.692              1.676              1.423
 Vibration     8          0.715              1.610              1.247
 Vibration     9          0.750              1.512              1.037
 Vibration    10          0.761              1.484              0.987
 Vibration    11          0.788              1.413              0.871
 Vibration    12          0.808              1.364              0.800
 Vibration    13          0.837              1.293              0.708
 Vibration    14          0.875              1.206              0.610
 Vibration    15          0.888              1.176              0.579
 Vibration    16          0.944              1.059              0.472

 Optimization completed.
    -- Stationary point found.
 Normal termination of Gaussian 16 at Mon Nov  5 05:31:01 2018.
