 Gaussian 16, Revision A.03,
 Gaussian 16:  ES64L-G16RevA.03 25-Dec-2016

 ----------------------------------------------------------------------
 #M062X/6-311++G(2d,2p) opt=ModRedundant freq=noraman SCRF=(Solvent=Wat
 er)
 ----------------------------------------------------------------------

 ----------------------------
 D_1a_4a_L_PSI.inp_extract_23
 ----------------------------
 Symbolic Z-matrix:
 Charge =  0 Multiplicity = 1

 SCF Done:  E(RM062X) =  -617.502026410     A.U. after   13 cycles
 SCF Done:  E(RM062X) =  -617.503753669     A.U. after   11 cycles
 SCF Done:  E(RM062X) =  -617.503909385     A.U. after   11 cycles
 SCF Done:  E(RM062X) =  -617.504030819     A.U. after   10 cycles
 SCF Done:  E(RM062X) =  -617.504035131     A.U. after    8 cycles
 Optimization completed.
    -- Stationary point found.
 Normal termination of Gaussian 16 at Sun Nov  4 21:53:20 2018.

 ----------------------------------------------------------------------
 #N Geom=AllCheck Guess=TCheck SCRF=Check GenChk RM062X/6-311++G(2d,2p)
  Freq
 ----------------------------------------------------------------------

 Structure from the checkpoint file:  "D_1a_4a_L_PSI.inp_extract_23.chk"
 ----------------------------
 D_1a_4a_L_PSI.inp_extract_23
 ----------------------------
 Charge =  0 Multiplicity = 1

                         Standard orientation:
 ---------------------------------------------------------------------
 Center     Atomic      Atomic             Coordinates (Angstroms)
 Number     Number       Type             X           Y           Z
 ---------------------------------------------------------------------
      1          6           0        3.116414    0.849355    0.623582
      2          6           0        1.210540   -0.861926   -0.692051
      3          6           0       -1.499705    1.131496   -0.826643
      4          6           0        2.599111   -0.389506    1.351547
      5          6           0       -3.175728    0.466217    0.892033
      6          8           0       -2.734255   -0.882652    0.810478
      7          6           0        2.065020    1.332370   -0.360356
      8          6           0       -1.104168   -0.339514   -0.915787
      9          6           0       -2.052707    1.438278    0.563587
     10          6           0       -2.276040   -1.211419   -0.488740
     11          8           0        1.711141    0.313076   -1.296814
     12          8           0       -0.009180   -0.621410   -0.044397
     13          6           0        2.183543   -1.439282    0.323078
     14          1           0        4.033014    0.606189    0.080793
     15          1           0        3.347776    1.652283    1.324068
     16          1           0       -2.270067    1.323730   -1.577978
     17          1           0        3.359191   -0.796486    2.017452
     18          1           0        1.738586   -0.116839    1.966312
     19          1           0        1.171813    1.653851    0.183392
     20          1           0        2.423488    2.167178   -0.958535
     21          1           0       -1.261218    1.334468    1.308264
     22          1           0       -2.428534    2.460230    0.615744
     23          1           0       -3.091425   -1.094934   -1.213319
     24          1           0       -1.975606   -2.256917   -0.459362
     25          1           0        3.062253   -1.782701   -0.225901
     26          1           0        1.722966   -2.306732    0.793862
     27          1           0        1.057091   -1.553130   -1.524211
     28          1           0       -4.013030    0.613362    0.197717
     29          1           0       -3.542193    0.605999    1.906803
     30          1           0       -0.643484    1.759051   -1.068896
     31          1           0       -0.829949   -0.597126   -1.941846
 ---------------------------------------------------------------------

 SCF Done:  E(RM062X) =  -617.504035131     A.U. after    1 cycles

 The electronic state is 1-A.
 Alpha  occ. eigenvalues --  -19.62974 -19.62950 -19.62834 -10.63481 -10.58772
 Alpha  occ. eigenvalues --  -10.57994 -10.57896 -10.57748 -10.53079 -10.53052
 Alpha  occ. eigenvalues --  -10.52995 -10.52908 -10.52857  -1.20033  -1.16398
 Alpha  occ. eigenvalues --   -1.13144  -0.91013  -0.89702  -0.87104  -0.84497
 Alpha  occ. eigenvalues --   -0.74261  -0.73870  -0.72811  -0.71715  -0.66333
 Alpha  occ. eigenvalues --   -0.62805  -0.59778  -0.57852  -0.57763  -0.55375
 Alpha  occ. eigenvalues --   -0.54543  -0.52967  -0.51741  -0.51061  -0.50108
 Alpha  occ. eigenvalues --   -0.48082  -0.46784  -0.46216  -0.45679  -0.44765
 Alpha  occ. eigenvalues --   -0.43593  -0.43007  -0.41207  -0.40212  -0.39145
 Alpha  occ. eigenvalues --   -0.38236  -0.37251  -0.36170  -0.35464  -0.33437
 Alpha  occ. eigenvalues --   -0.31730
 Alpha virt. eigenvalues --   -0.00145   0.00821   0.00836   0.01121   0.02274
 Alpha virt. eigenvalues --    0.02577   0.02766   0.03236   0.03354   0.04779
 Alpha virt. eigenvalues --    0.04875   0.05004   0.05547   0.05676   0.07222

 Mulliken charges:
               1
     1  C   -0.366079
     2  C   -0.156090
     3  C   -0.423943
     4  C   -0.324970
     5  C   -0.263947
     6  O   -0.310987
     7  C   -0.110803
     8  C    0.165294
     9  C   -0.262588
    10  C   -0.376823
    11  O   -0.296589
    12  O   -0.238487
    13  C   -0.340522
    14  H    0.164495
    15  H    0.173880
    16  H    0.223780
    17  H    0.188964
    18  H    0.172749
    19  H    0.112627
    20  H    0.215342
    21  H    0.149664
    22  H    0.178739
    23  H    0.175653
    24  H    0.199119
    25  H    0.193855
    26  H    0.175723
    27  H    0.222468
    28  H    0.151947
    29  H    0.196717
    30  H    0.183457
    31  H    0.227351
 Sum of Mulliken charges =  -0.00000

 Dipole moment (field-independent basis, Debye):
    X=              0.3395    Y=              1.3773    Z=             -0.9215  Tot=              1.6916
 Quadrupole moment (field-independent basis, Debye-Ang):
   XX=            -76.1647   YY=            -76.6623   ZZ=            -82.5740
   XY=             -4.8539   XZ=              7.5850   YZ=              4.9606

  Exact polarizability: 168.046  -0.384 161.521   0.872   2.977 154.323
 Approx polarizability: 144.319  -0.823 143.708  -0.311   1.716 143.574

                      1                      2                      3
                      A                      A                      A
 Frequencies --     11.2551                73.9874                84.4026
 Red. masses --      3.7623                 3.4488                 4.0442
 Frc consts  --      0.0003                 0.0111                 0.0170
 IR Inten    --      0.3380                 1.4570                 6.9237

                      4                      5                      6
                      A                      A                      A
 Frequencies --    148.6866               178.2785               235.1491
 Red. masses --      3.2375                 3.1314                 2.9700
 Frc consts  --      0.0422                 0.0586                 0.0968
 IR Inten    --      1.6084                 3.7785                 1.4790

                      7                      8                      9
                      A                      A                      A
 Frequencies --    258.2451               282.0073               335.9989
 Red. masses --      3.3870                 2.3518                 2.0516
 Frc consts  --      0.1331                 0.1102                 0.1365
 IR Inten    --      4.9049                 6.5034                 0.4913

                     10                     11                     12
                      A                      A                      A
 Frequencies --    382.6090               407.6665               438.0348
 Red. masses --      2.1142                 2.3293                 3.5987
 Frc consts  --      0.1824                 0.2281                 0.4068
 IR Inten    --      0.3385                10.5466                 6.0137

                     13                     14                     15
                      A                      A                      A
 Frequencies --    440.1632               492.5522               528.6459
 Red. masses --      2.0962                 3.4823                 2.5270
 Frc consts  --      0.2393                 0.4978                 0.4161
 IR Inten    --      5.4256                14.9218                 8.7174

                     16                     17                     18
                      A                      A                      A
 Frequencies --    533.0651               591.3617               671.9282
 Red. masses --      2.2410                 3.3300                 2.6527
 Frc consts  --      0.3752                 0.6861                 0.7056
 IR Inten    --      3.6840                10.8751                 2.9262

                     19                     20                     21
                      A                      A                      A
 Frequencies --    745.0450               832.8253               836.5266
 Red. masses --      2.5386                 1.7137                 2.9225
 Frc consts  --      0.8302                 0.7003                 1.2050
 IR Inten    --      2.4873                 0.6035                15.5647

                     22                     23                     24
                      A                      A                      A
 Frequencies --    856.0343               873.1758               882.7328
 Red. masses --      3.4639                 2.0603                 1.6196
 Frc consts  --      1.4955                 0.9255                 0.7436
 IR Inten    --      1.2671                 9.9271                13.2196

                     25                     26                     27
                      A                      A                      A
 Frequencies --    895.6946               904.7062               910.0762
 Red. masses --      2.5087                 2.4862                 2.3212
 Frc consts  --      1.1858                 1.1990                 1.1327
 IR Inten    --     14.7709                25.3275                58.3568

                     28                     29                     30
                      A                      A                      A
 Frequencies --    935.7855               950.1502              1009.5027
 Red. masses --      1.8881                 1.6351                 1.7033
 Frc consts  --      0.9741                 0.8697                 1.0227
 IR Inten    --     10.5736                 9.0317                45.8296

                     31                     32                     33
                      A                      A                      A
 Frequencies --   1037.5674              1042.5612              1059.2920
 Red. masses --      2.2253                 2.0405                 2.4476
 Frc consts  --      1.4115                 1.3067                 1.6182
 IR Inten    --      7.5899               107.3010               132.9790

                     34                     35                     36
                      A                      A                      A
 Frequencies --   1060.6590              1071.1600              1078.7464
 Red. masses --      1.9088                 1.7460                 2.4426
 Frc consts  --      1.2652                 1.1803                 1.6747
 IR Inten    --     11.6698                38.3487               136.3448

                     37                     38                     39
                      A                      A                      A
 Frequencies --   1094.1973              1144.8703              1155.3315
 Red. masses --      1.5553                 2.3731                 2.7353
 Frc consts  --      1.0971                 1.8326                 2.1512
 IR Inten    --     45.3025                75.0945               144.8928

                     40                     41                     42
                      A                      A                      A
 Frequencies --   1175.8641              1182.3961              1211.6933
 Red. masses --      3.3180                 2.7091                 1.4324
 Frc consts  --      2.7029                 2.2315                 1.2391
 IR Inten    --    160.9683                43.0284                23.0644

                     43                     44                     45
                      A                      A                      A
 Frequencies --   1227.2893              1233.5218              1244.5661
 Red. masses --      1.3753                 1.6064                 1.8582
 Frc consts  --      1.2205                 1.4401                 1.6958
 IR Inten    --     44.7227                48.2491                30.1430

                     46                     47                     48
                      A                      A                      A
 Frequencies --   1288.9503              1302.5363              1323.4132
 Red. masses --      1.2087                 1.1393                 1.1538
 Frc consts  --      1.1832                 1.1388                 1.1906
 IR Inten    --     25.9424                 7.0070                 8.5883

                     49                     50                     51
                      A                      A                      A
 Frequencies --   1337.3869              1358.1874              1359.2081
 Red. masses --      1.2484                 1.3595                 1.4539
 Frc consts  --      1.3156                 1.4776                 1.5826
 IR Inten    --     13.0921                18.0046                 5.2202

                     52                     53                     54
                      A                      A                      A
 Frequencies --   1367.2988              1378.8160              1386.8896
 Red. masses --      1.4812                 1.3192                 1.4908
 Frc consts  --      1.6315                 1.4777                 1.6895
 IR Inten    --      5.0295                40.4279                 2.5456

                     55                     56                     57
                      A                      A                      A
 Frequencies --   1391.0493              1395.5579              1404.4411
 Red. masses --      1.4829                 1.5838                 1.3556
 Frc consts  --      1.6906                 1.8174                 1.5754
 IR Inten    --      7.8466                36.0659                 9.0891

                     58                     59                     60
                      A                      A                      A
 Frequencies --   1405.3733              1428.2529              1434.3317
 Red. masses --      1.3812                 1.3625                 1.4038
 Frc consts  --      1.6073                 1.6376                 1.7016
 IR Inten    --      4.6714                18.5094                 6.5119

                     61                     62                     63
                      A                      A                      A
 Frequencies --   1443.4091              1475.9995              1476.2966
 Red. masses --      1.3213                 1.1046                 1.0915
 Frc consts  --      1.6219                 1.4179                 1.4016
 IR Inten    --      3.8872                 6.8379                 5.3459

                     64                     65                     66
                      A                      A                      A
 Frequencies --   1482.6612              1490.2549              1494.2030
 Red. masses --      1.0873                 1.1039                 1.1100
 Frc consts  --      1.4083                 1.4444                 1.4601
 IR Inten    --      7.9075                13.0655                14.4623

                     67                     68                     69
                      A                      A                      A
 Frequencies --   1495.7718              1509.4037              1511.9421
 Red. masses --      1.0958                 1.0936                 1.1009
 Frc consts  --      1.4445                 1.4680                 1.4827
 IR Inten    --      4.1099                 4.0136                 8.9405

                     70                     71                     72
                      A                      A                      A
 Frequencies --   3011.7181              3023.2466              3054.4698
 Red. masses --      1.0709                 1.0693                 1.0681
 Frc consts  --      5.7229                 5.7584                 5.8713
 IR Inten    --     76.5768                67.9329                48.2606

                     73                     74                     75
                      A                      A                      A
 Frequencies --   3062.4110              3063.4665              3066.3603
 Red. masses --      1.0739                 1.0646                 1.0763
 Frc consts  --      5.9342                 5.8865                 5.9628
 IR Inten    --      7.1659                39.4384                22.4797

                     76                     77                     78
                      A                      A                      A
 Frequencies --   3069.6018              3073.2117              3075.1716
 Red. masses --      1.0645                 1.0751                 1.0650
 Frc consts  --      5.9098                 5.9826                 5.9339
 IR Inten    --     37.7328                22.1586                72.7408

                     79                     80                     81
                      A                      A                      A
 Frequencies --   3081.4679              3114.2951              3118.8446
 Red. masses --      1.0682                 1.0976                 1.1018
 Frc consts  --      5.9758                 6.2720                 6.3146
 IR Inten    --     91.1925                37.5733                61.9053

                     82                     83                     84
                      A                      A                      A
 Frequencies --   3121.2335              3128.6626              3129.6599
 Red. masses --      1.1009                 1.0973                 1.1034
 Frc consts  --      6.3192                 6.3284                 6.3674
 IR Inten    --     52.4682                64.3264                45.3350

                     85                     86                     87
                      A                      A                      A
 Frequencies --   3131.5789              3133.8678              3134.3833
 Red. masses --      1.0943                 1.0962                 1.0983
 Frc consts  --      6.3229                 6.3429                 6.3574
 IR Inten    --     47.8272                11.9702                39.2149

 - Thermochemistry -
 -------------------
 Temperature   298.150 Kelvin.  Pressure   1.00000 Atm.
 Atom     1 has atomic number  6 and mass  12.00000

 Molecular mass:   186.12559 amu.
 Principal axes and moments of inertia in atomic units:
                           1         2         3
     Eigenvalues --  1162.417453643.358413838.88879
           X            0.99983  -0.01078   0.01494
           Y            0.00979   0.99784   0.06489
           Z           -0.01561  -0.06474   0.99778
 This molecule is an asymmetric top.
 Rotational symmetry number  1.
 Warning -- assumption of classical behavior for rotation
           may cause significant error
 Rotational temperatures (Kelvin)      0.07451     0.02377     0.02256
 Rotational constants (GHZ):           1.55258     0.49535     0.47012
 Zero-point vibrational energy     737385.9 (Joules/Mol)
                                  176.23946 (Kcal/Mol)
 Warning -- explicit consideration of  17 degrees of freedom as
           vibrations may cause significant error
 Vibrational temperatures:     16.19   106.45   121.44   213.93   256.50
          (Kelvin)            338.33   371.56   405.75   483.43   550.49
                              586.54   630.23   633.30   708.67   760.60
                              766.96   850.84   966.75  1071.95  1198.25
                             1203.58  1231.64  1256.31  1270.06  1288.70
                             1301.67  1309.40  1346.39  1367.05  1452.45
                             1492.83  1500.01  1524.08  1526.05  1541.16
                             1552.08  1574.31  1647.21  1662.26  1691.81
                             1701.20  1743.36  1765.80  1774.76  1790.65
                             1854.51  1874.06  1904.10  1924.20  1954.13
                             1955.60  1967.24  1983.81  1995.42  2001.41
                             2007.90  2020.68  2022.02  2054.94  2063.68
                             2076.74  2123.63  2124.06  2133.22  2144.14
                             2149.82  2152.08  2171.70  2175.35  4333.19
                             4349.78  4394.70  4406.13  4407.65  4411.81
                             4416.47  4421.67  4424.49  4433.55  4480.78
                             4487.32  4490.76  4501.45  4502.88  4505.64
                             4508.94  4509.68

 Zero-point correction=                           0.280855 (Hartree/Particle)
 Thermal correction to Energy=                    0.292515
 Thermal correction to Enthalpy=                  0.293460
 Thermal correction to Gibbs Free Energy=         0.241664
 Sum of electronic and zero-point Energies=           -617.223180
 Sum of electronic and thermal Energies=              -617.211520
 Sum of electronic and thermal Enthalpies=            -617.210575
 Sum of electronic and thermal Free Energies=         -617.262372

                     E (Thermal)             CV                S
                      KCal/Mol        Cal/Mol-Kelvin    Cal/Mol-Kelvin
 Total                  183.556             46.426            109.014
 Electronic               0.000              0.000              0.000
 Translational            0.889              2.981             41.570
 Rotational               0.889              2.981             31.164
 Vibrational            181.779             40.464             36.280
 Vibration     1          0.593              1.987              7.776
 Vibration     2          0.599              1.966              4.044
 Vibration     3          0.601              1.960              3.786
 Vibration     4          0.618              1.904              2.689
 Vibration     5          0.629              1.869              2.346
 Vibration     6          0.655              1.787              1.839
 Vibration     7          0.667              1.749              1.674
 Vibration     8          0.681              1.707              1.521
 Vibration     9          0.717              1.604              1.231
 Vibration    10          0.752              1.507              1.029
 Vibration    11          0.772              1.454              0.935
 Vibration    12          0.798              1.387              0.833
 Vibration    13          0.800              1.383              0.826
 Vibration    14          0.848              1.267              0.677
 Vibration    15          0.884              1.187              0.590
 Vibration    16          0.888              1.177              0.580
 Vibration    17          0.949              1.050              0.465

                           ! Non-Optimized Parameters !
 Normal termination of Gaussian 16 at Sun Nov  4 22:48:54 2018.
