 Gaussian 16, Revision A.03,
 Gaussian 16:  ES64L-G16RevA.03 25-Dec-2016

 ----------------------------------------------------------------------
 #M062X/6-311++G(2d,2p) opt=ModRedundant freq=noraman SCRF=(Solvent=Wat
 er)
 ----------------------------------------------------------------------

 ----------------------------
 D_1a_4a_L_PSI.inp_extract_25
 ----------------------------
 Symbolic Z-matrix:
 Charge =  0 Multiplicity = 1

 SCF Done:  E(RM062X) =  -617.500678045     A.U. after   13 cycles
 SCF Done:  E(RM062X) =  -617.502468192     A.U. after   11 cycles
 SCF Done:  E(RM062X) =  -617.502682457     A.U. after    9 cycles
 SCF Done:  E(RM062X) =  -617.502746429     A.U. after   10 cycles
 SCF Done:  E(RM062X) =  -617.502776705     A.U. after    9 cycles
 SCF Done:  E(RM062X) =  -617.502794401     A.U. after    9 cycles
 SCF Done:  E(RM062X) =  -617.502799577     A.U. after    9 cycles
 SCF Done:  E(RM062X) =  -617.502800307     A.U. after    7 cycles
 Optimization completed.
    -- Stationary point found.
 Normal termination of Gaussian 16 at Sun Nov  4 22:05:42 2018.

 ----------------------------------------------------------------------
 #N Geom=AllCheck Guess=TCheck SCRF=Check GenChk RM062X/6-311++G(2d,2p)
  Freq
 ----------------------------------------------------------------------

 Structure from the checkpoint file:  "D_1a_4a_L_PSI.inp_extract_25.chk"
 ----------------------------
 D_1a_4a_L_PSI.inp_extract_25
 ----------------------------
 Charge =  0 Multiplicity = 1

                         Standard orientation:
 ---------------------------------------------------------------------
 Center     Atomic      Atomic             Coordinates (Angstroms)
 Number     Number       Type             X           Y           Z
 ---------------------------------------------------------------------
      1          6           0       -3.044938    0.858245   -0.792524
      2          6           0       -1.206850   -0.624574    0.861423
      3          6           0        1.619746    0.686090    1.188077
      4          6           0       -2.742210   -0.600395   -1.129650
      5          6           0        3.068591    0.675158   -0.844803
      6          8           0        2.556723   -0.600296   -1.208210
      7          6           0       -1.857454    1.466788   -0.066333
      8          6           0        1.185987   -0.729648    0.808866
      9          6           0        2.042977    1.470377   -0.053361
     10          6           0        2.241829   -1.380327   -0.069645
     11          8           0       -1.524394    0.729338    1.109803
     12          8           0       -0.043508   -0.765684    0.087008
     13          6           0       -2.345138   -1.338394    0.147089
     14          1           0       -3.926371    0.914612   -0.149171
     15          1           0       -3.252416    1.438230   -1.692276
     16          1           0        2.471296    0.598389    1.868390
     17          1           0       -3.604829   -1.081481   -1.589411
     18          1           0       -1.921753   -0.645725   -1.849071
     19          1           0       -0.990886    1.497159   -0.731646
     20          1           0       -2.067015    2.479158    0.272010
     21          1           0        1.178698    1.659373   -0.691013
     22          1           0        2.464630    2.436081    0.226399
     23          1           0        3.145012   -1.542684    0.530964
     24          1           0        1.882937   -2.340165   -0.435387
     25          1           0       -3.194959   -1.368731    0.831720
     26          1           0       -2.041684   -2.364179   -0.057159
     27          1           0       -1.038473   -1.053042    1.852274
     28          1           0        3.982023    0.540645   -0.251337
     29          1           0        3.332688    1.175238   -1.774247
     30          1           0        0.817889    1.189809    1.723322
     31          1           0        1.077407   -1.339470    1.711994
 ---------------------------------------------------------------------

 SCF Done:  E(RM062X) =  -617.502800307     A.U. after    1 cycles

 The electronic state is 1-A.
 Alpha  occ. eigenvalues --  -19.63116 -19.62872 -19.62760 -10.63454 -10.58881
 Alpha  occ. eigenvalues --  -10.58081 -10.57879 -10.57687 -10.52998 -10.52960
 Alpha  occ. eigenvalues --  -10.52935 -10.52877 -10.52826  -1.19831  -1.16449
 Alpha  occ. eigenvalues --   -1.13284  -0.90876  -0.89552  -0.87244  -0.84523
 Alpha  occ. eigenvalues --   -0.74345  -0.73884  -0.72594  -0.71844  -0.66300
 Alpha  occ. eigenvalues --   -0.62678  -0.60047  -0.57889  -0.57394  -0.55169
 Alpha  occ. eigenvalues --   -0.54652  -0.52888  -0.52269  -0.50918  -0.49853
 Alpha  occ. eigenvalues --   -0.47891  -0.46800  -0.46380  -0.45402  -0.44810
 Alpha  occ. eigenvalues --   -0.43741  -0.42900  -0.41294  -0.40121  -0.39393
 Alpha  occ. eigenvalues --   -0.38163  -0.37354  -0.36282  -0.35032  -0.33213
 Alpha  occ. eigenvalues --   -0.31808
 Alpha virt. eigenvalues --   -0.00160   0.00819   0.00869   0.01125   0.02282
 Alpha virt. eigenvalues --    0.02542   0.02742   0.03162   0.03403   0.04775
 Alpha virt. eigenvalues --    0.04877   0.04895   0.05341   0.05906   0.07529

 Mulliken charges:
               1
     1  C   -0.393571
     2  C   -0.029287
     3  C   -0.436967
     4  C   -0.303589
     5  C   -0.235662
     6  O   -0.304719
     7  C   -0.103758
     8  C    0.074039
     9  C   -0.258878
    10  C   -0.377240
    11  O   -0.283930
    12  O   -0.273509
    13  C   -0.417439
    14  H    0.165193
    15  H    0.173042
    16  H    0.231688
    17  H    0.185405
    18  H    0.176909
    19  H    0.127147
    20  H    0.212393
    21  H    0.139357
    22  H    0.176172
    23  H    0.182872
    24  H    0.202777
    25  H    0.187312
    26  H    0.177752
    27  H    0.234901
    28  H    0.145938
    29  H    0.196262
    30  H    0.206821
    31  H    0.222571
 Sum of Mulliken charges =  -0.00000

 Dipole moment (field-independent basis, Debye):
    X=             -0.0507    Y=              0.3247    Z=              1.5533  Tot=              1.5877
 Quadrupole moment (field-independent basis, Debye-Ang):
   XX=            -74.2006   YY=            -76.1627   ZZ=            -83.6493
   XY=              3.2016   XZ=              7.6245   YZ=             -6.0519

  Exact polarizability: 167.918   0.407 162.606   1.659  -3.742 153.440
 Approx polarizability: 144.169  -0.163 144.029   0.608  -2.131 143.340

 ******    1 imaginary frequencies (negative Signs) ******

                      1                      2                      3
                      A                      A                      A
 Frequencies --    -43.1378                83.7833                99.6699
 Red. masses --      3.5936                 3.9153                 3.7737
 Frc consts  --      0.0039                 0.0162                 0.0221
 IR Inten    --      1.8472                 1.5359                 5.7776

                      4                      5                      6
                      A                      A                      A
 Frequencies --    122.6498               179.1508               242.3808
 Red. masses --      3.2405                 2.8659                 3.0243
 Frc consts  --      0.0287                 0.0542                 0.1047
 IR Inten    --      1.5494                 4.0915                 2.5551

                      7                      8                      9
                      A                      A                      A
 Frequencies --    271.0970               285.1791               333.0382
 Red. masses --      2.3816                 3.5710                 2.1055
 Frc consts  --      0.1031                 0.1711                 0.1376
 IR Inten    --      3.5703                 1.6203                 0.2945

                     10                     11                     12
                      A                      A                      A
 Frequencies --    363.9481               402.6284               435.2188
 Red. masses --      2.2925                 2.0248                 2.1030
 Frc consts  --      0.1789                 0.1934                 0.2347
 IR Inten    --      4.9898                12.3579                 4.7187

                     13                     14                     15
                      A                      A                      A
 Frequencies --    442.5741               479.4556               528.4799
 Red. masses --      3.5780                 3.8482                 2.1898
 Frc consts  --      0.4129                 0.5212                 0.3603
 IR Inten    --     10.1430                 8.2002                 4.0264

                     16                     17                     18
                      A                      A                      A
 Frequencies --    530.7051               597.6647               672.1557
 Red. masses --      2.2570                 3.6548                 2.7347
 Frc consts  --      0.3745                 0.7692                 0.7279
 IR Inten    --      5.4125                17.8773                 3.6434

                     19                     20                     21
                      A                      A                      A
 Frequencies --    737.3697               833.3915               835.5694
 Red. masses --      2.4812                 2.2562                 2.0682
 Frc consts  --      0.7948                 0.9233                 0.8508
 IR Inten    --      0.4585                 3.2544                 9.0911

                     22                     23                     24
                      A                      A                      A
 Frequencies --    852.1946               872.8182               878.6146
 Red. masses --      3.2957                 1.9462                 1.7794
 Frc consts  --      1.4102                 0.8736                 0.8093
 IR Inten    --      3.9076                 9.8676                12.5358

                     25                     26                     27
                      A                      A                      A
 Frequencies --    895.5233               900.6058               913.8233
 Red. masses --      2.4908                 2.4948                 2.2363
 Frc consts  --      1.1769                 1.1922                 1.1003
 IR Inten    --     22.9336                 1.1562                71.8970

                     28                     29                     30
                      A                      A                      A
 Frequencies --    935.5116               951.0245              1007.4478
 Red. masses --      2.0601                 1.5692                 1.8574
 Frc consts  --      1.0623                 0.8362                 1.1107
 IR Inten    --      7.6914                 7.8559                71.4467

                     31                     32                     33
                      A                      A                      A
 Frequencies --   1034.7131              1036.4268              1061.4639
 Red. masses --      2.0566                 2.1926                 1.6948
 Frc consts  --      1.2973                 1.3877                 1.1251
 IR Inten    --     20.0299                69.8753                72.8565

                     34                     35                     36
                      A                      A                      A
 Frequencies --   1063.9004              1069.9905              1077.9916
 Red. masses --      2.4994                 1.7466                 2.5355
 Frc consts  --      1.6668                 1.1781                 1.7360
 IR Inten    --     98.2784                14.8610               164.2589

                     37                     38                     39
                      A                      A                      A
 Frequencies --   1101.2087              1144.0319              1159.2332
 Red. masses --      1.6008                 2.5012                 3.0119
 Frc consts  --      1.1437                 1.9287                 2.3847
 IR Inten    --     42.2383                41.3591               219.0650

                     40                     41                     42
                      A                      A                      A
 Frequencies --   1174.9271              1184.6469              1211.0420
 Red. masses --      3.1997                 2.5862                 1.4148
 Frc consts  --      2.6025                 2.1384                 1.2225
 IR Inten    --    122.9293                34.7306                21.8814

                     43                     44                     45
                      A                      A                      A
 Frequencies --   1228.2295              1234.3643              1246.1029
 Red. masses --      1.3626                 1.6002                 1.8499
 Frc consts  --      1.2111                 1.4365                 1.6924
 IR Inten    --     63.0390                29.1494                36.4647

                     46                     47                     48
                      A                      A                      A
 Frequencies --   1287.5863              1306.5793              1318.9273
 Red. masses --      1.2198                 1.1325                 1.1562
 Frc consts  --      1.1915                 1.1391                 1.1850
 IR Inten    --     22.4410                 8.6333                 7.8840

                     49                     50                     51
                      A                      A                      A
 Frequencies --   1339.4998              1357.1809              1362.5307
 Red. masses --      1.2405                 1.3512                 1.4138
 Frc consts  --      1.3114                 1.4664                 1.5464
 IR Inten    --     14.8886                13.7463                16.6642

                     52                     53                     54
                      A                      A                      A
 Frequencies --   1369.3752              1379.4263              1387.1835
 Red. masses --      1.4265                 1.3221                 1.5004
 Frc consts  --      1.5761                 1.4822                 1.7010
 IR Inten    --      2.8339                39.0336                 1.0759

                     55                     56                     57
                      A                      A                      A
 Frequencies --   1390.4855              1397.4070              1399.5342
 Red. masses --      1.6165                 1.4813                 1.3582
 Frc consts  --      1.8414                 1.7043                 1.5674
 IR Inten    --      7.9793                31.9320                 4.9065

                     58                     59                     60
                      A                      A                      A
 Frequencies --   1408.7634              1424.6218              1431.1922
 Red. masses --      1.3891                 1.4025                 1.3963
 Frc consts  --      1.6242                 1.6771                 1.6851
 IR Inten    --      9.4881                23.5625                 2.1425

                     61                     62                     63
                      A                      A                      A
 Frequencies --   1447.8949              1475.1630              1476.5523
 Red. masses --      1.3011                 1.0896                 1.1057
 Frc consts  --      1.6071                 1.3970                 1.4203
 IR Inten    --      5.8973                 5.9795                 4.9146

                     64                     65                     66
                      A                      A                      A
 Frequencies --   1483.1065              1485.3552              1491.1090
 Red. masses --      1.0865                 1.1158                 1.0881
 Frc consts  --      1.4081                 1.4504                 1.4254
 IR Inten    --      8.6253                16.5723                 3.5101

                     67                     68                     69
                      A                      A                      A
 Frequencies --   1495.8667              1509.7828              1510.4263
 Red. masses --      1.1064                 1.0940                 1.1013
 Frc consts  --      1.4587                 1.4693                 1.4804
 IR Inten    --     10.9055                 5.2672                 7.1534

                     70                     71                     72
                      A                      A                      A
 Frequencies --   3014.0146              3025.9136              3042.5323
 Red. masses --      1.0705                 1.0697                 1.0823
 Frc consts  --      5.7298                 5.7709                 5.9032
 IR Inten    --     77.6178                43.8641                60.8760

                     73                     74                     75
                      A                      A                      A
 Frequencies --   3060.3241              3065.0121              3067.6391
 Red. masses --      1.0671                 1.0711                 1.0633
 Frc consts  --      5.8884                 5.9286                 5.8954
 IR Inten    --     30.8059                43.6904                53.0412

                     76                     77                     78
                      A                      A                      A
 Frequencies --   3068.5208              3071.3131              3080.3803
 Red. masses --      1.0723                 1.0669                 1.0710
 Frc consts  --      5.9487                 5.9293                 5.9874
 IR Inten    --     41.6173                20.7987                87.8388

                     79                     80                     81
                      A                      A                      A
 Frequencies --   3084.1658              3113.2523              3118.0885
 Red. masses --      1.0598                 1.0976                 1.1026
 Frc consts  --      5.9395                 6.2679                 6.3161
 IR Inten    --     37.4084                34.8896                71.9225

                     82                     83                     84
                      A                      A                      A
 Frequencies --   3125.1348              3130.7857              3130.9611
 Red. masses --      1.0995                 1.0963                 1.1021
 Frc consts  --      6.3266                 6.3309                 6.3655
 IR Inten    --     41.4124                53.4118                37.1980

                     85                     86                     87
                      A                      A                      A
 Frequencies --   3134.5197              3136.3184              3142.9892
 Red. masses --      1.0951                 1.1010                 1.0957
 Frc consts  --      6.3396                 6.3810                 6.3771
 IR Inten    --     31.5441                53.3445                14.1182

 - Thermochemistry -
 -------------------
 Temperature   298.150 Kelvin.  Pressure   1.00000 Atm.
 Atom     1 has atomic number  6 and mass  12.00000

 Molecular mass:   186.12559 amu.
 Principal axes and moments of inertia in atomic units:
                           1         2         3
     Eigenvalues --  1194.387513555.981853782.52808
           X            0.99980   0.01081   0.01658
           Y           -0.00957   0.99728  -0.07305
           Z           -0.01732   0.07288   0.99719
 This molecule is an asymmetric top.
 Rotational symmetry number  1.
 Warning -- assumption of classical behavior for rotation
           may cause significant error
 Rotational temperatures (Kelvin)      0.07252     0.02436     0.02290
 Rotational constants (GHZ):           1.51102     0.50752     0.47713
    1 imaginary frequencies ignored.
 Zero-point vibrational energy     737254.7 (Joules/Mol)
                                  176.20810 (Kcal/Mol)
 Warning -- explicit consideration of  16 degrees of freedom as
           vibrations may cause significant error
 Vibrational temperatures:    120.55   143.40   176.47   257.76   348.73
          (Kelvin)            390.05   410.31   479.17   523.64   579.29
                              626.18   636.77   689.83   760.36   763.57
                              859.91   967.08  1060.91  1199.06  1202.20
                             1226.12  1255.79  1264.13  1288.46  1295.77
                             1314.79  1345.99  1368.31  1449.49  1488.72
                             1491.19  1527.21  1530.72  1539.48  1550.99
                             1584.39  1646.01  1667.88  1690.46  1704.44
                             1742.42  1767.15  1775.97  1792.86  1852.55
                             1879.88  1897.64  1927.24  1952.68  1960.38
                             1970.23  1984.69  1995.85  2000.60  2010.56
                             2013.62  2026.90  2049.71  2059.17  2083.20
                             2122.43  2124.43  2133.86  2137.09  2145.37
                             2152.22  2172.24  2173.17  4336.49  4353.61
                             4377.53  4403.12  4409.87  4413.65  4414.92
                             4418.93  4431.98  4437.43  4479.28  4486.23
                             4496.37  4504.50  4504.75  4509.87  4512.46
                             4522.06

 Zero-point correction=                           0.280805 (Hartree/Particle)
 Thermal correction to Energy=                    0.291552
 Thermal correction to Enthalpy=                  0.292496
 Thermal correction to Gibbs Free Energy=         0.244502
 Sum of electronic and zero-point Energies=           -617.221995
 Sum of electronic and thermal Energies=              -617.211249
 Sum of electronic and thermal Enthalpies=            -617.210305
 Sum of electronic and thermal Free Energies=         -617.258299

                     E (Thermal)             CV                S
                      KCal/Mol        Cal/Mol-Kelvin    Cal/Mol-Kelvin
 Total                  182.951             44.511            101.012
 Electronic               0.000              0.000              0.000
 Translational            0.889              2.981             41.570
 Rotational               0.889              2.981             31.152
 Vibrational            181.174             38.549             28.289
 Vibration     1          0.601              1.960              3.800
 Vibration     2          0.604              1.949              3.461
 Vibration     3          0.610              1.930              3.058
 Vibration     4          0.629              1.868              2.337
 Vibration     5          0.659              1.775              1.785
 Vibration     6          0.675              1.726              1.589
 Vibration     7          0.683              1.701              1.502
 Vibration     8          0.715              1.610              1.245
 Vibration     9          0.737              1.546              1.105
 Vibration    10          0.768              1.464              0.953
 Vibration    11          0.796              1.393              0.842
 Vibration    12          0.802              1.377              0.819
 Vibration    13          0.836              1.296              0.712
 Vibration    14          0.883              1.187              0.591
 Vibration    15          0.886              1.182              0.586
 Vibration    16          0.956              1.037              0.454

                           ! Non-Optimized Parameters !
 Normal termination of Gaussian 16 at Sun Nov  4 23:02:59 2018.
