 Gaussian 16, Revision A.03,
 Gaussian 16:  ES64L-G16RevA.03 25-Dec-2016

 ----------------------------------------------------------------------
 #M062X/6-311++G(2d,2p) opt=ModRedundant freq=noraman SCRF=(Solvent=Wat
 er)
 ----------------------------------------------------------------------

 ----------------------------
 D_1a_4a_L_PSI.inp_extract_14
 ----------------------------
 Symbolic Z-matrix:
 Charge =  0 Multiplicity = 1

 SCF Done:  E(RM062X) =  -617.496247448     A.U. after   13 cycles
 SCF Done:  E(RM062X) =  -617.497263064     A.U. after   12 cycles
 SCF Done:  E(RM062X) =  -617.498252420     A.U. after   11 cycles
 SCF Done:  E(RM062X) =  -617.498464485     A.U. after   10 cycles
 SCF Done:  E(RM062X) =  -617.498501211     A.U. after    9 cycles
 SCF Done:  E(RM062X) =  -617.498502758     A.U. after    8 cycles
 SCF Done:  E(RM062X) =  -617.498502860     A.U. after    7 cycles
 Optimization completed.
    -- Stationary point found.
 Normal termination of Gaussian 16 at Mon Nov  5 04:26:14 2018.

 ----------------------------------------------------------------------
 #N Geom=AllCheck Guess=TCheck SCRF=Check GenChk RM062X/6-311++G(2d,2p)
  Freq
 ----------------------------------------------------------------------

 Structure from the checkpoint file:  "D_1a_4a_L_PSI.inp_extract_14.chk"
 ----------------------------
 D_1a_4a_L_PSI.inp_extract_14
 ----------------------------
 Charge =  0 Multiplicity = 1

                         Standard orientation:
 ---------------------------------------------------------------------
 Center     Atomic      Atomic             Coordinates (Angstroms)
 Number     Number       Type             X           Y           Z
 ---------------------------------------------------------------------
      1          6           0       -3.524505   -0.115258    0.090505
      2          6           0       -0.718798    0.056777   -0.547554
      3          6           0        2.148916    0.861169    1.231435
      4          6           0       -2.857071    1.256753    0.007653
      5          6           0        3.165290   -0.026178   -0.853130
      6          8           0        2.118010   -0.978358   -0.979364
      7          6           0       -2.491982   -1.168466    0.457673
      8          6           0        1.070104   -0.214012    1.125940
      9          6           0        2.675075    1.229809   -0.152145
     10          6           0        1.583559   -1.372823    0.274279
     11          8           0       -1.405657   -1.180061   -0.467494
     12          8           0       -0.144000    0.405473    0.684790
     13          6           0       -1.662695    1.182799   -0.942338
     14          1           0       -3.964304   -0.370947   -0.876688
     15          1           0       -4.325473   -0.120815    0.830570
     16          1           0        2.968531    0.471383    1.840813
     17          1           0       -3.564173    2.011747   -0.334660
     18          1           0       -2.516124    1.556168    1.000574
     19          1           0       -2.107375   -0.985659    1.465175
     20          1           0       -2.914705   -2.170424    0.427699
     21          1           0        1.880079    1.685044   -0.747728
     22          1           0        3.487857    1.952241   -0.078770
     23          1           0        2.361111   -1.876217    0.861195
     24          1           0        0.788828   -2.083194    0.063526
     25          1           0       -2.011193    0.978600   -1.956559
     26          1           0       -1.104453    2.118310   -0.961616
     27          1           0        0.047948   -0.100955   -1.301967
     28          1           0        3.994860   -0.471357   -0.289165
     29          1           0        3.508757    0.182577   -1.864058
     30          1           0        1.738259    1.727771    1.748560
     31          1           0        0.857383   -0.624119    2.115737
 ---------------------------------------------------------------------

 SCF Done:  E(RM062X) =  -617.498502860     A.U. after    1 cycles

 The electronic state is 1-A.
 Alpha  occ. eigenvalues --  -19.62987 -19.62732 -19.62504 -10.62917 -10.58983
 Alpha  occ. eigenvalues --  -10.58180 -10.57997 -10.57525 -10.53144 -10.53042
 Alpha  occ. eigenvalues --  -10.52858 -10.52819 -10.52725  -1.19460  -1.16428
 Alpha  occ. eigenvalues --   -1.12827  -0.90886  -0.89601  -0.87006  -0.84680
 Alpha  occ. eigenvalues --   -0.74889  -0.74063  -0.72763  -0.70824  -0.66217
 Alpha  occ. eigenvalues --   -0.62474  -0.59577  -0.58946  -0.56904  -0.54764
 Alpha  occ. eigenvalues --   -0.54213  -0.53193  -0.52366  -0.49947  -0.49845
 Alpha  occ. eigenvalues --   -0.48637  -0.46678  -0.45937  -0.45589  -0.45189
 Alpha  occ. eigenvalues --   -0.43450  -0.42560  -0.41261  -0.40275  -0.39486
 Alpha  occ. eigenvalues --   -0.38383  -0.37172  -0.36612  -0.33901  -0.32749
 Alpha  occ. eigenvalues --   -0.32039
 Alpha virt. eigenvalues --   -0.00179   0.00790   0.00876   0.01140   0.02262
 Alpha virt. eigenvalues --    0.02471   0.02720   0.03296   0.03468   0.04643
 Alpha virt. eigenvalues --    0.04711   0.04957   0.05315   0.05997   0.07161

 Mulliken charges:
               1
     1  C   -0.430900
     2  C   -0.246805
     3  C   -0.516562
     4  C   -0.288969
     5  C   -0.250207
     6  O   -0.288477
     7  C   -0.094847
     8  C    0.142754
     9  C   -0.245038
    10  C   -0.348490
    11  O   -0.288356
    12  O   -0.277335
    13  C   -0.367116
    14  H    0.161951
    15  H    0.171528
    16  H    0.204296
    17  H    0.184634
    18  H    0.177769
    19  H    0.145391
    20  H    0.202388
    21  H    0.139724
    22  H    0.200518
    23  H    0.198159
    24  H    0.252742
    25  H    0.187336
    26  H    0.171423
    27  H    0.329262
    28  H    0.162522
    29  H    0.200209
    30  H    0.169495
    31  H    0.240999
 Sum of Mulliken charges =  -0.00000

 Dipole moment (field-independent basis, Debye):
    X=              0.8884    Y=              1.4346    Z=              1.7708  Tot=              2.4460
 Quadrupole moment (field-independent basis, Debye-Ang):
   XX=            -69.5537   YY=            -81.8482   ZZ=            -80.5710
   XY=              1.8250   XZ=              1.9899   YZ=             -5.9981

  Exact polarizability: 171.906   2.844 157.318  -0.884  -3.666 154.422
 Approx polarizability: 145.936   1.990 141.529   0.256  -1.127 143.982

 ******    1 imaginary frequencies (negative Signs) ******

                      1                      2                      3
                      A                      A                      A
 Frequencies --    -46.1308                56.1678               105.0317
 Red. masses --      3.7939                 3.9718                 3.4934
 Frc consts  --      0.0048                 0.0074                 0.0227
 IR Inten    --      1.4239                 2.8750                 2.7984

                      4                      5                      6
                      A                      A                      A
 Frequencies --    121.7539               197.8581               221.5531
 Red. masses --      3.7102                 3.3093                 3.1953
 Frc consts  --      0.0324                 0.0763                 0.0924
 IR Inten    --      0.1917                 6.2454                 8.8834

                      7                      8                      9
                      A                      A                      A
 Frequencies --    254.0251               292.4854               345.3099
 Red. masses --      2.7966                 2.1675                 2.5947
 Frc consts  --      0.1063                 0.1092                 0.1823
 IR Inten    --      6.3842                 4.2765                 5.0459

                     10                     11                     12
                      A                      A                      A
 Frequencies --    375.0586               390.9722               430.6026
 Red. masses --      2.2602                 1.9572                 2.6542
 Frc consts  --      0.1873                 0.1763                 0.2900
 IR Inten    --      2.6501                 6.6673                 2.4669

                     13                     14                     15
                      A                      A                      A
 Frequencies --    445.2364               480.3428               518.9449
 Red. masses --      2.7419                 3.7274                 2.6161
 Frc consts  --      0.3202                 0.5067                 0.4151
 IR Inten    --     12.2818                 6.0057                 1.0924

                     16                     17                     18
                      A                      A                      A
 Frequencies --    535.2499               587.4741               680.5757
 Red. masses --      1.9678                 3.0257                 3.0697
 Frc consts  --      0.3322                 0.6152                 0.8377
 IR Inten    --      7.4559                13.9431                 4.0069

                     19                     20                     21
                      A                      A                      A
 Frequencies --    755.2938               807.3098               836.5751
 Red. masses --      2.3968                 2.9758                 1.7920
 Frc consts  --      0.8056                 1.1427                 0.7389
 IR Inten    --      6.3506                 8.0493                 9.4517

                     22                     23                     24
                      A                      A                      A
 Frequencies --    843.1983               865.1290               877.9304
 Red. masses --      3.1728                 2.1662                 1.7989
 Frc consts  --      1.3291                 0.9552                 0.8169
 IR Inten    --      8.8335                 9.7261                20.2954

                     25                     26                     27
                      A                      A                      A
 Frequencies --    892.3081               901.9887               914.5242
 Red. masses --      2.5441                 2.6028                 2.2814
 Frc consts  --      1.1935                 1.2477                 1.1242
 IR Inten    --     47.9275                10.5148                38.6668

                     28                     29                     30
                      A                      A                      A
 Frequencies --    924.2565               952.4330               982.9240
 Red. masses --      1.8651                 1.7145                 1.8431
 Frc consts  --      0.9387                 0.9163                 1.0491
 IR Inten    --     11.2710                26.2679                43.0455

                     31                     32                     33
                      A                      A                      A
 Frequencies --   1036.5069              1039.3657              1055.5850
 Red. masses --      1.9678                 2.2256                 2.1330
 Frc consts  --      1.2456                 1.4166                 1.4003
 IR Inten    --     23.5364                16.9722               185.6207

                     34                     35                     36
                      A                      A                      A
 Frequencies --   1058.2488              1067.7280              1076.9387
 Red. masses --      1.8481                 1.6922                 2.3313
 Frc consts  --      1.2194                 1.1366                 1.5930
 IR Inten    --     45.4096                24.2517               149.1582

                     37                     38                     39
                      A                      A                      A
 Frequencies --   1104.3368              1146.7004              1150.9386
 Red. masses --      1.6252                 2.7675                 2.6005
 Frc consts  --      1.1678                 2.1440                 2.0296
 IR Inten    --     25.7630               145.5391                46.4768

                     40                     41                     42
                      A                      A                      A
 Frequencies --   1167.1440              1192.7967              1208.7526
 Red. masses --      2.4933                 3.4289                 1.4088
 Frc consts  --      2.0011                 2.8743                 1.2128
 IR Inten    --     62.2007               165.2651                25.2842

                     43                     44                     45
                      A                      A                      A
 Frequencies --   1223.4694              1232.7977              1243.8772
 Red. masses --      1.3186                 1.6266                 1.8785
 Frc consts  --      1.1630                 1.4565                 1.7124
 IR Inten    --     25.9750                30.9391                72.5208

                     46                     47                     48
                      A                      A                      A
 Frequencies --   1286.5536              1309.2447              1319.6451
 Red. masses --      1.2163                 1.1484                 1.1538
 Frc consts  --      1.1861                 1.1598                 1.1839
 IR Inten    --     18.6327                37.6470                 7.8692

                     49                     50                     51
                      A                      A                      A
 Frequencies --   1341.6746              1358.8926              1362.8465
 Red. masses --      1.2601                 1.4069                 1.4148
 Frc consts  --      1.3364                 1.5307                 1.5482
 IR Inten    --     30.5426                10.6804                 2.5262

                     52                     53                     54
                      A                      A                      A
 Frequencies --   1368.7500              1383.7739              1387.3385
 Red. masses --      1.3810                 1.5025                 1.5793
 Frc consts  --      1.5244                 1.6951                 1.7910
 IR Inten    --      8.8856                 6.0645                 7.0966

                     55                     56                     57
                      A                      A                      A
 Frequencies --   1394.1136              1402.4236              1405.6689
 Red. masses --      1.5778                 1.3087                 1.3221
 Frc consts  --      1.8067                 1.5165                 1.5392
 IR Inten    --      0.7409                 8.4022                 3.2213

                     58                     59                     60
                      A                      A                      A
 Frequencies --   1408.1329              1419.7165              1431.1290
 Red. masses --      1.3978                 1.3440                 1.3562
 Frc consts  --      1.6330                 1.5961                 1.6366
 IR Inten    --     12.1650                 3.7653                10.3789

                     61                     62                     63
                      A                      A                      A
 Frequencies --   1439.9050              1475.0580              1479.3848
 Red. masses --      1.2958                 1.1049                 1.0884
 Frc consts  --      1.5829                 1.4164                 1.4035
 IR Inten    --     18.9749                 4.2718                 6.6731

                     64                     65                     66
                      A                      A                      A
 Frequencies --   1481.9242              1487.2768              1494.4788
 Red. masses --      1.0872                 1.1145                 1.0826
 Frc consts  --      1.4068                 1.4525                 1.4246
 IR Inten    --      8.3151                15.2419                14.0341

                     67                     68                     69
                      A                      A                      A
 Frequencies --   1496.2766              1509.6867              1512.5237
 Red. masses --      1.1062                 1.0938                 1.1004
 Frc consts  --      1.4592                 1.4688                 1.4832
 IR Inten    --      6.4533                 3.0159                 9.3872

                     70                     71                     72
                      A                      A                      A
 Frequencies --   3013.0706              3026.8694              3052.8548
 Red. masses --      1.0709                 1.0716                 1.0688
 Frc consts  --      5.7280                 5.7847                 5.8692
 IR Inten    --     80.7300                50.8759                56.2491

                     73                     74                     75
                      A                      A                      A
 Frequencies --   3059.7686              3062.4286              3068.3542
 Red. masses --      1.0698                 1.0624                 1.0649
 Frc consts  --      5.9012                 5.8704                 5.9071
 IR Inten    --      9.7362                50.1500                12.5891

                     76                     77                     78
                      A                      A                      A
 Frequencies --   3072.6012              3073.2133              3076.5686
 Red. masses --      1.0786                 1.0630                 1.0617
 Frc consts  --      5.9996                 5.9151                 5.9209
 IR Inten    --    117.4304                30.8502                25.1309

                     79                     80                     81
                      A                      A                      A
 Frequencies --   3111.8016              3117.9547              3118.2586
 Red. masses --      1.0979                 1.1023                 1.0971
 Frc consts  --      6.2639                 6.3138                 6.2853
 IR Inten    --     45.3349                58.0629                39.2376

                     82                     83                     84
                      A                      A                      A
 Frequencies --   3121.1119              3127.2968              3131.6496
 Red. masses --      1.1026                 1.1038                 1.0982
 Frc consts  --      6.3284                 6.3605                 6.3457
 IR Inten    --     52.6741                44.5584                51.1903

                     85                     86                     87
                      A                      A                      A
 Frequencies --   3132.0702              3143.7148              3158.6478
 Red. masses --      1.0939                 1.0875                 1.0927
 Frc consts  --      6.3228                 6.3326                 6.4234
 IR Inten    --     44.1491                19.7451                11.1009

 - Thermochemistry -
 -------------------
 Temperature   298.150 Kelvin.  Pressure   1.00000 Atm.
 Atom     1 has atomic number  6 and mass  12.00000

 Molecular mass:   186.12559 amu.
 Principal axes and moments of inertia in atomic units:
                           1         2         3
     Eigenvalues --  1046.095603638.038593874.59013
           X            0.99999   0.00231   0.00254
           Y           -0.00208   0.99615  -0.08763
           Z           -0.00273   0.08763   0.99615
 This molecule is an asymmetric top.
 Rotational symmetry number  1.
 Warning -- assumption of classical behavior for rotation
           may cause significant error
 Rotational temperatures (Kelvin)      0.08280     0.02381     0.02235
 Rotational constants (GHZ):           1.72522     0.49608     0.46579
    1 imaginary frequencies ignored.
 Zero-point vibrational energy     737033.3 (Joules/Mol)
                                  176.15520 (Kcal/Mol)
 Warning -- explicit consideration of  16 degrees of freedom as
           vibrations may cause significant error
 Vibrational temperatures:     80.81   151.12   175.18   284.67   318.77
          (Kelvin)            365.49   420.82   496.82   539.63   562.52
                              619.54   640.60   691.11   746.65   770.11
                              845.24   979.20  1086.70  1161.54  1203.65
                             1213.17  1244.73  1263.15  1283.83  1297.76
                             1315.80  1329.80  1370.34  1414.21  1491.30
                             1495.42  1518.75  1522.58  1536.22  1549.47
                             1588.89  1649.85  1655.94  1679.26  1716.17
                             1739.13  1760.30  1773.72  1789.66  1851.06
                             1883.71  1898.67  1930.37  1955.14  1960.83
                             1969.33  1990.94  1996.07  2005.82  2017.77
                             2022.44  2025.99  2042.66  2059.08  2071.70
                             2122.28  2128.50  2132.16  2139.86  2150.22
                             2152.81  2172.10  2176.18  4335.14  4354.99
                             4392.38  4402.32  4406.15  4414.68  4420.79
                             4421.67  4426.50  4477.19  4486.04  4486.48
                             4490.58  4499.48  4505.75  4506.35  4523.10
                             4544.59

 Zero-point correction=                           0.280721 (Hartree/Particle)
 Thermal correction to Energy=                    0.291533
 Thermal correction to Enthalpy=                  0.292477
 Thermal correction to Gibbs Free Energy=         0.244172
 Sum of electronic and zero-point Energies=           -617.217782
 Sum of electronic and thermal Energies=              -617.206970
 Sum of electronic and thermal Enthalpies=            -617.206026
 Sum of electronic and thermal Free Energies=         -617.254331

                     E (Thermal)             CV                S
                      KCal/Mol        Cal/Mol-Kelvin    Cal/Mol-Kelvin
 Total                  182.940             44.626            101.666
 Electronic               0.000              0.000              0.000
 Translational            0.889              2.981             41.570
 Rotational               0.889              2.981             31.067
 Vibrational            181.162             38.664             29.029
 Vibration     1          0.596              1.975              4.587
 Vibration     2          0.605              1.945              3.359
 Vibration     3          0.609              1.931              3.072
 Vibration     4          0.637              1.843              2.153
 Vibration     5          0.648              1.808              1.946
 Vibration     6          0.665              1.756              1.702
 Vibration     7          0.688              1.688              1.460
 Vibration     8          0.724              1.585              1.188
 Vibration     9          0.746              1.523              1.059
 Vibration    10          0.759              1.489              0.996
 Vibration    11          0.792              1.404              0.857
 Vibration    12          0.805              1.371              0.810
 Vibration    13          0.837              1.294              0.709
 Vibration    14          0.874              1.208              0.612
 Vibration    15          0.890              1.172              0.576
 Vibration    16          0.945              1.059              0.472

 Optimization completed.
    -- Stationary point found.
 Normal termination of Gaussian 16 at Mon Nov  5 05:22:10 2018.
