 Gaussian 16, Revision A.03,
 Gaussian 16:  ES64L-G16RevA.03 25-Dec-2016

 ----------------------------------------------------------------------
 #M062X/6-311++G(2d,2p) opt=ModRedundant freq=noraman SCRF=(Solvent=Wat
 er)
 ----------------------------------------------------------------------

 ---------------------------
 D_1a_4a_L_PSI.inp_extract_4
 ---------------------------
 Symbolic Z-matrix:
 Charge =  0 Multiplicity = 1

 SCF Done:  E(RM062X) =  -617.497547932     A.U. after   13 cycles
 SCF Done:  E(RM062X) =  -617.497504833     A.U. after   11 cycles
 SCF Done:  E(RM062X) =  -617.499413795     A.U. after   11 cycles
 SCF Done:  E(RM062X) =  -617.500045618     A.U. after   10 cycles
 SCF Done:  E(RM062X) =  -617.500201656     A.U. after   10 cycles
 SCF Done:  E(RM062X) =  -617.500217048     A.U. after   10 cycles
 SCF Done:  E(RM062X) =  -617.500219603     A.U. after    8 cycles
 SCF Done:  E(RM062X) =  -617.500219763     A.U. after    7 cycles
 Optimization completed.
    -- Stationary point found.
 Normal termination of Gaussian 16 at Sun Nov  4 22:07:37 2018.

 ----------------------------------------------------------------------
 #N Geom=AllCheck Guess=TCheck SCRF=Check GenChk RM062X/6-311++G(2d,2p)
  Freq
 ----------------------------------------------------------------------

 Structure from the checkpoint file:  "D_1a_4a_L_PSI.inp_extract_4.chk"
 ---------------------------
 D_1a_4a_L_PSI.inp_extract_4
 ---------------------------
 Charge =  0 Multiplicity = 1

                         Standard orientation:
 ---------------------------------------------------------------------
 Center     Atomic      Atomic             Coordinates (Angstroms)
 Number     Number       Type             X           Y           Z
 ---------------------------------------------------------------------
      1          6           0       -2.801367    1.194276   -0.563749
      2          6           0       -1.124468   -0.718118    0.787034
      3          6           0        1.706986   -0.357739    1.339182
      4          6           0       -2.905807   -0.284755   -0.932073
      5          6           0        2.827713    1.043319   -0.407936
      6          8           0        2.160995    0.294662   -1.416075
      7          6           0       -1.410744    1.490123   -0.027950
      8          6           0        1.185771   -1.246457    0.206352
      9          6           0        2.016562    1.067351    0.876752
     10          6           0        2.030591   -1.062990   -1.042085
     11          8           0       -1.094191    0.658998    1.089883
     12          8           0       -0.179409   -1.068444   -0.186533
     13          6           0       -2.493856   -1.135719    0.268068
     14          1           0       -3.539006    1.437308    0.204978
     15          1           0       -2.998817    1.831305   -1.426484
     16          1           0        2.632632   -0.828496    1.681226
     17          1           0       -3.919573   -0.537138   -1.241388
     18          1           0       -2.245297   -0.497711   -1.774914
     19          1           0       -0.661649    1.338879   -0.810863
     20          1           0       -1.328457    2.512683    0.335407
     21          1           0        1.091978    1.613233    0.702016
     22          1           0        2.575119    1.599454    1.647921
     23          1           0        3.022280   -1.495409   -0.862561
     24          1           0        1.567372   -1.581306   -1.879453
     25          1           0       -3.209767   -0.996676    1.080345
     26          1           0       -2.468493   -2.196001    0.020159
     27          1           0       -0.903060   -1.220111    1.731091
     28          1           0        3.816544    0.601976   -0.229481
     29          1           0        2.966790    2.045253   -0.808781
     30          1           0        1.023934   -0.354950    2.185763
     31          1           0        1.290026   -2.289773    0.525248
 ---------------------------------------------------------------------

 SCF Done:  E(RM062X) =  -617.500219763     A.U. after    1 cycles

 The electronic state is 1-A.
 Alpha  occ. eigenvalues --  -19.62903 -19.62836 -19.62686 -10.63356 -10.58924
 Alpha  occ. eigenvalues --  -10.58053 -10.57785 -10.57590 -10.53348 -10.52930
 Alpha  occ. eigenvalues --  -10.52889 -10.52782 -10.52568  -1.19720  -1.16408
 Alpha  occ. eigenvalues --   -1.13071  -0.90826  -0.89354  -0.87330  -0.84493
 Alpha  occ. eigenvalues --   -0.74920  -0.73791  -0.72483  -0.71529  -0.66089
 Alpha  occ. eigenvalues --   -0.62089  -0.60060  -0.57753  -0.57619  -0.55288
 Alpha  occ. eigenvalues --   -0.53946  -0.53327  -0.52626  -0.50962  -0.49490
 Alpha  occ. eigenvalues --   -0.47319  -0.46958  -0.46268  -0.45581  -0.45090
 Alpha  occ. eigenvalues --   -0.43484  -0.42710  -0.40755  -0.39960  -0.39434
 Alpha  occ. eigenvalues --   -0.38185  -0.37580  -0.36201  -0.33998  -0.33187
 Alpha  occ. eigenvalues --   -0.32147
 Alpha virt. eigenvalues --   -0.00174   0.00811   0.00941   0.01034   0.02329
 Alpha virt. eigenvalues --    0.02618   0.02784   0.03205   0.03276   0.04810
 Alpha virt. eigenvalues --    0.04992   0.05088   0.05513   0.05889   0.07128

 Mulliken charges:
               1
     1  C   -0.436524
     2  C   -0.071384
     3  C   -0.275901
     4  C   -0.265559
     5  C   -0.317281
     6  O   -0.292147
     7  C   -0.120658
     8  C    0.035749
     9  C   -0.359745
    10  C   -0.321263
    11  O   -0.250759
    12  O   -0.287674
    13  C   -0.521144
    14  H    0.163715
    15  H    0.173274
    16  H    0.254311
    17  H    0.191040
    18  H    0.167465
    19  H    0.170019
    20  H    0.215120
    21  H    0.199137
    22  H    0.182040
    23  H    0.180077
    24  H    0.203722
    25  H    0.198739
    26  H    0.183333
    27  H    0.228845
    28  H    0.153346
    29  H    0.196592
    30  H    0.188115
    31  H    0.235397
 Sum of Mulliken charges =  -0.00000

 Dipole moment (field-independent basis, Debye):
    X=              0.3994    Y=             -0.8880    Z=              1.5387  Tot=              1.8209
 Quadrupole moment (field-independent basis, Debye-Ang):
   XX=            -72.1872   YY=            -75.8251   ZZ=            -84.8797
   XY=             -1.3684   XZ=              5.2529   YZ=             -1.8601

  Exact polarizability: 167.850   0.276 163.615   1.885  -0.702 152.706
 Approx polarizability: 144.201  -1.038 145.811   1.075  -0.408 142.363

                      1                      2                      3
                      A                      A                      A
 Frequencies --     36.7873                82.3882               121.0838
 Red. masses --      4.0063                 3.9648                 3.5475
 Frc consts  --      0.0032                 0.0159                 0.0306
 IR Inten    --      1.3207                 2.3364                 5.3073

                      4                      5                      6
                      A                      A                      A
 Frequencies --    146.3416               191.0757               230.0714
 Red. masses --      3.4937                 3.3069                 2.7513
 Frc consts  --      0.0441                 0.0711                 0.0858
 IR Inten    --      0.3964                 1.8124                 8.1659

                      7                      8                      9
                      A                      A                      A
 Frequencies --    262.5778               285.2504               332.8939
 Red. masses --      3.2705                 2.3722                 2.0831
 Frc consts  --      0.1329                 0.1137                 0.1360
 IR Inten    --      0.4695                 7.6218                 0.5280

                     10                     11                     12
                      A                      A                      A
 Frequencies --    385.0246               403.2961               431.8810
 Red. masses --      2.2308                 2.1335                 2.6400
 Frc consts  --      0.1948                 0.2045                 0.2901
 IR Inten    --      0.5979                18.0123                13.9098

                     13                     14                     15
                      A                      A                      A
 Frequencies --    444.9026               488.0898               520.7250
 Red. masses --      2.8244                 3.7900                 2.1727
 Frc consts  --      0.3294                 0.5320                 0.3471
 IR Inten    --      3.8387                 7.9589                 5.2218

                     16                     17                     18
                      A                      A                      A
 Frequencies --    534.8242               603.7521               674.2827
 Red. masses --      2.1769                 3.3867                 2.9579
 Frc consts  --      0.3669                 0.7273                 0.7923
 IR Inten    --      4.8021                 9.5771                 5.3033

                     19                     20                     21
                      A                      A                      A
 Frequencies --    732.9709               818.5892               838.0701
 Red. masses --      2.4017                 3.0129                 1.7040
 Frc consts  --      0.7602                 1.1895                 0.7052
 IR Inten    --      4.2070                 5.9625                 3.5081

                     22                     23                     24
                      A                      A                      A
 Frequencies --    844.2846               864.5931               874.7104
 Red. masses --      3.0716                 1.6772                 2.2657
 Frc consts  --      1.2900                 0.7387                 1.0214
 IR Inten    --      9.9536                 8.0319                 4.4191

                     25                     26                     27
                      A                      A                      A
 Frequencies --    897.4923               908.2102               915.0328
 Red. masses --      2.4968                 2.6439                 2.4479
 Frc consts  --      1.1849                 1.2849                 1.2076
 IR Inten    --     24.3682                20.9758                36.7852

                     28                     29                     30
                      A                      A                      A
 Frequencies --    928.5987               954.1407               999.3831
 Red. masses --      1.8638                 1.6110                 2.0568
 Frc consts  --      0.9469                 0.8641                 1.2103
 IR Inten    --     17.9861                10.2175                52.8373

                     31                     32                     33
                      A                      A                      A
 Frequencies --   1035.5298              1038.8861              1060.4774
 Red. masses --      1.9843                 2.1754                 2.1879
 Frc consts  --      1.2537                 1.3833                 1.4497
 IR Inten    --     46.2541                17.8075               129.5131

                     34                     35                     36
                      A                      A                      A
 Frequencies --   1064.6705              1071.1820              1076.7039
 Red. masses --      1.7290                 1.8099                 2.4627
 Frc consts  --      1.1547                 1.2235                 1.6821
 IR Inten    --     67.8998                53.7288               105.9740

                     37                     38                     39
                      A                      A                      A
 Frequencies --   1107.3248              1147.0397              1160.3978
 Red. masses --      1.6111                 2.7996                 3.0039
 Frc consts  --      1.1639                 2.1703                 2.3831
 IR Inten    --     58.2592                30.2119               159.2220

                     40                     41                     42
                      A                      A                      A
 Frequencies --   1175.7757              1188.1606              1213.0310
 Red. masses --      2.4694                 3.0513                 1.4025
 Frc consts  --      2.0113                 2.5379                 1.2159
 IR Inten    --     65.3423               131.2461                24.3544

                     43                     44                     45
                      A                      A                      A
 Frequencies --   1231.3233              1236.3033              1247.7966
 Red. masses --      1.4251                 1.4925                 1.7839
 Frc consts  --      1.2730                 1.3441                 1.6365
 IR Inten    --     72.6209                13.4096                49.0005

                     46                     47                     48
                      A                      A                      A
 Frequencies --   1289.2947              1316.7801              1323.3659
 Red. masses --      1.2133                 1.1660                 1.1538
 Frc consts  --      1.1883                 1.1912                 1.1905
 IR Inten    --     18.0168                16.2185                 9.9224

                     49                     50                     51
                      A                      A                      A
 Frequencies --   1343.0326              1360.1973              1368.1715
 Red. masses --      1.2557                 1.3474                 1.4691
 Frc consts  --      1.3345                 1.4688                 1.6202
 IR Inten    --     22.6467                 8.7251                 6.9141

                     52                     53                     54
                      A                      A                      A
 Frequencies --   1371.8130              1379.3069              1389.3715
 Red. masses --      1.3617                 1.2722                 1.5137
 Frc consts  --      1.5098                 1.4260                 1.7216
 IR Inten    --      0.6307                29.2443                 4.9444

                     55                     56                     57
                      A                      A                      A
 Frequencies --   1390.2804              1400.7444              1408.3911
 Red. masses --      1.4992                 1.4396                 1.4051
 Frc consts  --      1.7073                 1.6642                 1.6421
 IR Inten    --      7.0501                16.7818                15.8969

                     58                     59                     60
                      A                      A                      A
 Frequencies --   1411.3305              1426.4106              1431.0081
 Red. masses --      1.4790                 1.3507                 1.3787
 Frc consts  --      1.7357                 1.6192                 1.6634
 IR Inten    --      4.2663                13.9733                 3.6555

                     61                     62                     63
                      A                      A                      A
 Frequencies --   1436.8838              1476.9254              1478.0727
 Red. masses --      1.3270                 1.0997                 1.0979
 Frc consts  --      1.6143                 1.4133                 1.4131
 IR Inten    --     15.7334                12.1093                11.1128

                     64                     65                     66
                      A                      A                      A
 Frequencies --   1483.7644              1489.3140              1489.3901
 Red. masses --      1.0866                 1.0868                 1.1042
 Frc consts  --      1.4095                 1.4202                 1.4431
 IR Inten    --      6.6327                 3.3113                14.0643

                     67                     68                     69
                      A                      A                      A
 Frequencies --   1496.8110              1511.5549              1512.4607
 Red. masses --      1.1070                 1.0958                 1.0991
 Frc consts  --      1.4613                 1.4751                 1.4814
 IR Inten    --     12.3172                 5.3695                 6.4116

                     70                     71                     72
                      A                      A                      A
 Frequencies --   3013.9412              3020.2473              3031.0685
 Red. masses --      1.0706                 1.0770                 1.0755
 Frc consts  --      5.7300                 5.7883                 5.8217
 IR Inten    --     79.5317                15.0438               133.9449

                     73                     74                     75
                      A                      A                      A
 Frequencies --   3052.1990              3062.0501              3066.0049
 Red. masses --      1.0683                 1.0623                 1.0709
 Frc consts  --      5.8639                 5.8682                 5.9313
 IR Inten    --     39.4249                42.9586                47.9027

                     76                     77                     78
                      A                      A                      A
 Frequencies --   3071.3761              3073.9781              3083.5182
 Red. masses --      1.0667                 1.0678                 1.0769
 Frc consts  --      5.9284                 5.9447                 6.0326
 IR Inten    --     33.0158                11.8938                90.1111

                     79                     80                     81
                      A                      A                      A
 Frequencies --   3088.3864              3111.7904              3118.2720
 Red. masses --      1.0677                 1.0981                 1.1022
 Frc consts  --      6.0002                 6.2648                 6.3147
 IR Inten    --     42.4961                37.6861                66.1041

                     82                     83                     84
                      A                      A                      A
 Frequencies --   3128.3084              3130.1085              3130.3729
 Red. masses --      1.0934                 1.0992                 1.1031
 Frc consts  --      6.3046                 6.3452                 6.3690
 IR Inten    --     36.7398                40.8785                55.2907

                     85                     86                     87
                      A                      A                      A
 Frequencies --   3134.1629              3137.1156              3156.7501
 Red. masses --      1.0948                 1.0930                 1.0955
 Frc consts  --      6.3364                 6.3377                 6.4318
 IR Inten    --     28.0566                31.6543                25.1137

 - Thermochemistry -
 -------------------
 Temperature   298.150 Kelvin.  Pressure   1.00000 Atm.
 Atom     1 has atomic number  6 and mass  12.00000

 Molecular mass:   186.12559 amu.
 Principal axes and moments of inertia in atomic units:
                           1         2         3
     Eigenvalues --  1228.116733259.162843428.71404
           X            0.99985   0.00035   0.01756
           Y            0.00016   0.99959  -0.02866
           Z           -0.01757   0.02865   0.99944
 This molecule is an asymmetric top.
 Rotational symmetry number  1.
 Warning -- assumption of classical behavior for rotation
           may cause significant error
 Rotational temperatures (Kelvin)      0.07053     0.02658     0.02526
 Rotational constants (GHZ):           1.46952     0.55374     0.52636
 Zero-point vibrational energy     738097.4 (Joules/Mol)
                                  176.40952 (Kcal/Mol)
 Warning -- explicit consideration of  17 degrees of freedom as
           vibrations may cause significant error
 Vibrational temperatures:     52.93   118.54   174.21   210.55   274.92
          (Kelvin)            331.02   377.79   410.41   478.96   553.96
                              580.25   621.38   640.12   702.25   749.21
                              769.49   868.66   970.14  1054.58  1177.77
                             1205.80  1214.74  1243.96  1258.51  1291.29
                             1306.71  1316.53  1336.05  1372.80  1437.89
                             1489.90  1494.73  1525.79  1531.82  1541.19
                             1549.14  1593.19  1650.33  1669.55  1691.68
                             1709.50  1745.28  1771.60  1778.76  1795.30
                             1855.01  1894.55  1904.03  1932.32  1957.02
                             1968.49  1973.73  1984.51  1999.00  2000.30
                             2015.36  2026.36  2030.59  2052.29  2058.90
                             2067.36  2124.97  2126.62  2134.81  2142.79
                             2142.90  2153.58  2174.79  2176.09  4336.39
                             4345.46  4361.03  4391.43  4405.61  4411.30
                             4419.03  4422.77  4436.49  4443.50  4477.17
                             4486.50  4500.94  4503.53  4503.91  4509.36
                             4513.61  4541.86

 Zero-point correction=                           0.281126 (Hartree/Particle)
 Thermal correction to Energy=                    0.292641
 Thermal correction to Enthalpy=                  0.293585
 Thermal correction to Gibbs Free Energy=         0.243445
 Sum of electronic and zero-point Energies=           -617.219093
 Sum of electronic and thermal Energies=              -617.207579
 Sum of electronic and thermal Enthalpies=            -617.206635
 Sum of electronic and thermal Free Energies=         -617.256775

                     E (Thermal)             CV                S
                      KCal/Mol        Cal/Mol-Kelvin    Cal/Mol-Kelvin
 Total                  183.635             46.416            105.529
 Electronic               0.000              0.000              0.000
 Translational            0.889              2.981             41.570
 Rotational               0.889              2.981             30.996
 Vibrational            181.858             40.455             32.963
 Vibration     1          0.594              1.982              5.425
 Vibration     2          0.600              1.961              3.833
 Vibration     3          0.609              1.932              3.083
 Vibration     4          0.617              1.907              2.719
 Vibration     5          0.634              1.852              2.217
 Vibration     6          0.652              1.795              1.878
 Vibration     7          0.670              1.741              1.645
 Vibration     8          0.683              1.701              1.502
 Vibration     9          0.715              1.610              1.246
 Vibration    10          0.754              1.502              1.019
 Vibration    11          0.769              1.463              0.951
 Vibration    12          0.793              1.401              0.853
 Vibration    13          0.804              1.372              0.811
 Vibration    14          0.844              1.276              0.689
 Vibration    15          0.876              1.204              0.608
 Vibration    16          0.890              1.173              0.577
 Vibration    17          0.962              1.024              0.443

 Optimization completed.
    -- Stationary point found.
 Normal termination of Gaussian 16 at Sun Nov  4 23:05:08 2018.
