 Gaussian 16, Revision A.03,
 Gaussian 16:  ES64L-G16RevA.03 25-Dec-2016

 ----------------------------------------------------------------------
 #M062X/6-311++G(2d,2p) opt=ModRedundant freq=noraman SCRF=(Solvent=Wat
 er)
 ----------------------------------------------------------------------

 ---------------------------
 D_1a_4a_L_PSI.inp_extract_5
 ---------------------------
 Symbolic Z-matrix:
 Charge =  0 Multiplicity = 1

 SCF Done:  E(RM062X) =  -617.493812509     A.U. after   13 cycles
 SCF Done:  E(RM062X) =  -617.493854399     A.U. after   11 cycles
 SCF Done:  E(RM062X) =  -617.496024700     A.U. after   11 cycles
 SCF Done:  E(RM062X) =  -617.496536275     A.U. after   11 cycles
 SCF Done:  E(RM062X) =  -617.497098508     A.U. after   10 cycles
 SCF Done:  E(RM062X) =  -617.497144228     A.U. after    9 cycles
 SCF Done:  E(RM062X) =  -617.497150091     A.U. after    8 cycles
 SCF Done:  E(RM062X) =  -617.497151657     A.U. after    8 cycles
 SCF Done:  E(RM062X) =  -617.497151718     A.U. after    7 cycles
 Optimization completed.
    -- Stationary point found.
 Normal termination of Gaussian 16 at Sun Nov  4 22:12:02 2018.

 ----------------------------------------------------------------------
 #N Geom=AllCheck Guess=TCheck SCRF=Check GenChk RM062X/6-311++G(2d,2p)
  Freq
 ----------------------------------------------------------------------

 Structure from the checkpoint file:  "D_1a_4a_L_PSI.inp_extract_5.chk"
 ---------------------------
 D_1a_4a_L_PSI.inp_extract_5
 ---------------------------
 Charge =  0 Multiplicity = 1

                         Standard orientation:
 ---------------------------------------------------------------------
 Center     Atomic      Atomic             Coordinates (Angstroms)
 Number     Number       Type             X           Y           Z
 ---------------------------------------------------------------------
      1          6           0        2.687497    1.326488    0.382677
      2          6           0        1.122482   -0.825524   -0.715949
      3          6           0       -1.750878   -0.714208   -1.197474
      4          6           0        2.909679   -0.097295    0.891292
      5          6           0       -2.771731    1.095445    0.211416
      6          8           0       -1.999287    0.641049    1.315434
      7          6           0        1.268418    1.470703   -0.141489
      8          6           0       -1.161648   -1.301773    0.090523
      9          6           0       -2.075647    0.779972   -1.101543
     10          6           0       -1.894362   -0.768654    1.309579
     11          8           0        0.990891    0.505363   -1.158093
     12          8           0        0.243999   -1.141130    0.328241
     13          6           0        2.531498   -1.094226   -0.203376
     14          1           0        3.389340    1.542937   -0.426541
     15          1           0        2.857091    2.058498    1.172995
     16          1           0       -2.681344   -1.262780   -1.364643
     17          1           0        3.947109   -0.243625    1.190561
     18          1           0        2.288713   -0.270663    1.772141
     19          1           0        0.542355    1.354941    0.668069
     20          1           0        1.111060    2.440575   -0.609928
     21          1           0       -1.163688    1.367460   -1.166832
     22          1           0       -2.720471    1.072825   -1.931321
     23          1           0       -2.896872   -1.212894    1.338929
     24          1           0       -1.357507   -1.054551    2.212127
     25          1           0        3.214020   -0.990276   -1.048873
     26          1           0        2.589740   -2.122266    0.151513
     27          1           0        0.911098   -1.434738   -1.596737
     28          1           0       -3.760972    0.621936    0.249213
     29          1           0       -2.899994    2.167914    0.343200
     30          1           0       -1.111275   -0.920592   -2.053091
     31          1           0       -1.335081   -2.382528    0.060629
 ---------------------------------------------------------------------

 SCF Done:  E(RM062X) =  -617.497151718     A.U. after    1 cycles

 The electronic state is 1-A.
 Alpha  occ. eigenvalues --  -19.62824 -19.62789 -19.62607 -10.63329 -10.58939
 Alpha  occ. eigenvalues --  -10.57982 -10.57759 -10.57434 -10.53494 -10.52880
 Alpha  occ. eigenvalues --  -10.52835 -10.52734 -10.52468  -1.19599  -1.16401
 Alpha  occ. eigenvalues --   -1.12961  -0.90790  -0.89258  -0.87315  -0.84424
 Alpha  occ. eigenvalues --   -0.75027  -0.73770  -0.72517  -0.71383  -0.65981
 Alpha  occ. eigenvalues --   -0.61942  -0.59957  -0.57924  -0.57389  -0.55282
 Alpha  occ. eigenvalues --   -0.53773  -0.53342  -0.52636  -0.50987  -0.49432
 Alpha  occ. eigenvalues --   -0.47195  -0.47132  -0.45993  -0.45472  -0.45106
 Alpha  occ. eigenvalues --   -0.43352  -0.42708  -0.40555  -0.39920  -0.39411
 Alpha  occ. eigenvalues --   -0.38115  -0.37553  -0.36189  -0.34292  -0.32877
 Alpha  occ. eigenvalues --   -0.31876
 Alpha virt. eigenvalues --   -0.00176   0.00790   0.00970   0.01031   0.02342
 Alpha virt. eigenvalues --    0.02631   0.02777   0.03217   0.03289   0.04844
 Alpha virt. eigenvalues --    0.05045   0.05127   0.05522   0.05789   0.07148

 Mulliken charges:
               1
     1  C   -0.426813
     2  C   -0.060413
     3  C   -0.320573
     4  C   -0.269048
     5  C   -0.313925
     6  O   -0.275384
     7  C   -0.160834
     8  C    0.082053
     9  C   -0.355282
    10  C   -0.354359
    11  O   -0.254157
    12  O   -0.297912
    13  C   -0.510824
    14  H    0.165163
    15  H    0.172535
    16  H    0.258559
    17  H    0.189664
    18  H    0.166084
    19  H    0.187466
    20  H    0.213688
    21  H    0.210542
    22  H    0.196667
    23  H    0.176232
    24  H    0.209204
    25  H    0.197518
    26  H    0.183945
    27  H    0.234223
    28  H    0.154013
    29  H    0.196577
    30  H    0.174303
    31  H    0.231088
 Sum of Mulliken charges =  -0.00000

 Dipole moment (field-independent basis, Debye):
    X=             -0.6848    Y=             -1.1165    Z=             -1.1555  Tot=              1.7467
 Quadrupole moment (field-independent basis, Debye-Ang):
   XX=            -71.8733   YY=            -76.7029   ZZ=            -84.3481
   XY=              2.4427   XZ=              3.8765   YZ=              0.3419

  Exact polarizability: 168.104  -0.330 162.947   1.762  -0.866 153.326
 Approx polarizability: 144.446   1.025 145.669   0.775  -0.607 142.364

                      1                      2                      3
                      A                      A                      A
 Frequencies --     19.8449                75.0451               126.4230
 Red. masses --      3.8714                 4.3254                 3.5325
 Frc consts  --      0.0009                 0.0144                 0.0333
 IR Inten    --      0.8095                 2.9217                 5.1532

                      4                      5                      6
                      A                      A                      A
 Frequencies --    136.4054               184.7268               233.4352
 Red. masses --      3.4160                 3.1786                 2.8824
 Frc consts  --      0.0374                 0.0639                 0.0925
 IR Inten    --      0.1833                 1.9978                10.3706

                      7                      8                      9
                      A                      A                      A
 Frequencies --    256.8675               290.8852               328.6532
 Red. masses --      3.1461                 2.4408                 2.0839
 Frc consts  --      0.1223                 0.1217                 0.1326
 IR Inten    --      0.4283                 9.3522                 0.9936

                     10                     11                     12
                      A                      A                      A
 Frequencies --    378.3232               406.5933               430.9547
 Red. masses --      2.1361                 2.2105                 2.7477
 Frc consts  --      0.1801                 0.2153                 0.3007
 IR Inten    --      0.6131                16.7972                15.7077

                     13                     14                     15
                      A                      A                      A
 Frequencies --    447.1506               487.0200               520.2297
 Red. masses --      2.6679                 3.8947                 2.1420
 Frc consts  --      0.3143                 0.5443                 0.3416
 IR Inten    --      2.7287                 8.8308                 5.0772

                     16                     17                     18
                      A                      A                      A
 Frequencies --    531.3903               600.4689               675.7309
 Red. masses --      2.1940                 3.1815                 3.1242
 Frc consts  --      0.3650                 0.6759                 0.8405
 IR Inten    --      5.7674                 7.4243                 4.5709

                     19                     20                     21
                      A                      A                      A
 Frequencies --    732.1977               806.7695               835.2511
 Red. masses --      2.3825                 2.9764                 1.6562
 Frc consts  --      0.7526                 1.1414                 0.6808
 IR Inten    --      6.0012                 6.5570                 4.5979

                     22                     23                     24
                      A                      A                      A
 Frequencies --    842.6472               858.2742               873.4334
 Red. masses --      3.1050                 1.7426                 2.3454
 Frc consts  --      1.2990                 0.7563                 1.0542
 IR Inten    --      9.4994                 6.5744                 5.9351

                     25                     26                     27
                      A                      A                      A
 Frequencies --    896.4468               906.9786               913.9348
 Red. masses --      2.5116                 2.6970                 2.4694
 Frc consts  --      1.1892                 1.3072                 1.2153
 IR Inten    --     21.9065                23.1560                33.3100

                     28                     29                     30
                      A                      A                      A
 Frequencies --    926.8620               957.0498               992.1521
 Red. masses --      1.8688                 1.6376                 2.0652
 Frc consts  --      0.9459                 0.8837                 1.1978
 IR Inten    --     20.6204                10.4915                44.9734

                     31                     32                     33
                      A                      A                      A
 Frequencies --   1036.9458              1038.4335              1059.6835
 Red. masses --      2.0365                 2.1186                 2.0863
 Frc consts  --      1.2902                 1.3460                 1.3803
 IR Inten    --     10.6249                44.6013               132.5880

                     34                     35                     36
                      A                      A                      A
 Frequencies --   1065.7587              1070.5854              1076.0688
 Red. masses --      1.6856                 1.8732                 2.4392
 Frc consts  --      1.1281                 1.2649                 1.6641
 IR Inten    --     52.0250                51.3727               132.2998

                     37                     38                     39
                      A                      A                      A
 Frequencies --   1107.7854              1148.0390              1160.3357
 Red. masses --      1.6349                 2.9383                 2.8023
 Frc consts  --      1.1821                 2.2817                 2.2229
 IR Inten    --     57.0887                35.4248               103.4998

                     40                     41                     42
                      A                      A                      A
 Frequencies --   1174.1339              1190.1472              1213.3920
 Red. masses --      2.3771                 3.1962                 1.4138
 Frc consts  --      1.9308                 2.6674                 1.2264
 IR Inten    --     83.2527               158.6370                29.6801

                     43                     44                     45
                      A                      A                      A
 Frequencies --   1232.3188              1239.1929              1247.8401
 Red. masses --      1.5630                 1.3783                 1.8027
 Frc consts  --      1.3985                 1.2470                 1.6538
 IR Inten    --     65.5974                25.7541                43.2192

                     46                     47                     48
                      A                      A                      A
 Frequencies --   1288.8114              1321.7157              1323.7763
 Red. masses --      1.2132                 1.1925                 1.1506
 Frc consts  --      1.1873                 1.2274                 1.1880
 IR Inten    --     18.2150                23.4287                 6.1694

                     49                     50                     51
                      A                      A                      A
 Frequencies --   1344.6268              1359.0837              1369.8124
 Red. masses --      1.2790                 1.3498                 1.5223
 Frc consts  --      1.3625                 1.4690                 1.6830
 IR Inten    --     29.4163                 6.5537                 5.2294

                     52                     53                     54
                      A                      A                      A
 Frequencies --   1372.5435              1382.4996              1389.1730
 Red. masses --      1.2955                 1.2855                 1.5780
 Frc consts  --      1.4379                 1.4476                 1.7942
 IR Inten    --     10.5039                16.4131                 5.7739

                     55                     56                     57
                      A                      A                      A
 Frequencies --   1389.6847              1402.3650              1408.4581
 Red. masses --      1.4290                 1.4031                 1.5109
 Frc consts  --      1.6260                 1.6257                 1.7659
 IR Inten    --      4.1484                15.5811                10.9134

                     58                     59                     60
                      A                      A                      A
 Frequencies --   1410.4538              1424.7179              1431.5966
 Red. masses --      1.3655                 1.3126                 1.3564
 Frc consts  --      1.6006                 1.5698                 1.6378
 IR Inten    --      9.1516                 9.0320                 4.2429

                     61                     62                     63
                      A                      A                      A
 Frequencies --   1438.1791              1475.5662              1478.8281
 Red. masses --      1.3248                 1.1025                 1.0931
 Frc consts  --      1.6145                 1.4143                 1.4084
 IR Inten    --     19.5864                 7.2172                15.7733

                     64                     65                     66
                      A                      A                      A
 Frequencies --   1481.6642              1489.4192              1492.2695
 Red. masses --      1.0863                 1.0873                 1.1014
 Frc consts  --      1.4051                 1.4211                 1.4451
 IR Inten    --      6.9358                 3.8852                15.1113

                     67                     68                     69
                      A                      A                      A
 Frequencies --   1495.0965              1512.2005              1514.2371
 Red. masses --      1.1098                 1.1015                 1.0926
 Frc consts  --      1.4616                 1.4841                 1.4760
 IR Inten    --     11.9436                 8.7284                 3.3155

                     70                     71                     72
                      A                      A                      A
 Frequencies --   3015.1024              3020.9677              3034.2548
 Red. masses --      1.0704                 1.0720                 1.0807
 Frc consts  --      5.7332                 5.7642                 5.8620
 IR Inten    --     75.2402                26.7740               126.3182

                     73                     74                     75
                      A                      A                      A
 Frequencies --   3058.2055              3064.7967              3068.5428
 Red. masses --      1.0676                 1.0614                 1.0706
 Frc consts  --      5.8832                 5.8738                 5.9397
 IR Inten    --     36.2849                36.9120                44.1413

                     76                     77                     78
                      A                      A                      A
 Frequencies --   3072.7891              3075.0680              3084.8393
 Red. masses --      1.0665                 1.0663                 1.0784
 Frc consts  --      5.9332                 5.9405                 6.0464
 IR Inten    --     34.1067                13.4479                93.1537

                     79                     80                     81
                      A                      A                      A
 Frequencies --   3089.4299              3111.8529              3118.4882
 Red. masses --      1.0695                 1.0975                 1.1024
 Frc consts  --      6.0145                 6.2618                 6.3164
 IR Inten    --     49.4819                38.3030                66.5358

                     82                     83                     84
                      A                      A                      A
 Frequencies --   3126.6665              3129.2823              3131.0300
 Red. masses --      1.0934                 1.1019                 1.1031
 Frc consts  --      6.2980                 6.3577                 6.3714
 IR Inten    --     44.5439                41.5253                45.5523

                     85                     86                     87
                      A                      A                      A
 Frequencies --   3132.6498              3135.1954              3167.8487
 Red. masses --      1.0947                 1.0931                 1.0933
 Frc consts  --      6.3297                 6.3306                 6.4640
 IR Inten    --     26.5531                35.7720                20.6968

 - Thermochemistry -
 -------------------
 Temperature   298.150 Kelvin.  Pressure   1.00000 Atm.
 Atom     1 has atomic number  6 and mass  12.00000

 Molecular mass:   186.12559 amu.
 Principal axes and moments of inertia in atomic units:
                           1         2         3
     Eigenvalues --  1244.114833154.998463322.63726
           X            0.99986   0.00436   0.01629
           Y           -0.00442   0.99998   0.00400
           Z           -0.01627  -0.00407   0.99986
 This molecule is an asymmetric top.
 Rotational symmetry number  1.
 Warning -- assumption of classical behavior for rotation
           may cause significant error
 Rotational temperatures (Kelvin)      0.06962     0.02745     0.02607
 Rotational constants (GHZ):           1.45062     0.57203     0.54317
 Zero-point vibrational energy     737896.1 (Joules/Mol)
                                  176.36140 (Kcal/Mol)
 Warning -- explicit consideration of  17 degrees of freedom as
           vibrations may cause significant error
 Vibrational temperatures:     28.55   107.97   181.89   196.26   265.78
          (Kelvin)            335.86   369.58   418.52   472.86   544.32
                              585.00   620.05   643.35   700.71   748.49
                              764.55   863.94   972.23  1053.47  1160.76
                             1201.74  1212.38  1234.87  1256.68  1289.79
                             1304.94  1314.95  1333.55  1376.98  1427.49
                             1491.93  1494.07  1524.65  1533.39  1540.33
                             1548.22  1593.86  1651.77  1669.46  1689.32
                             1712.36  1745.80  1773.03  1782.92  1795.36
                             1854.31  1901.65  1904.62  1934.62  1955.42
                             1970.85  1974.78  1989.11  1998.71  1999.45
                             2017.69  2026.46  2029.33  2049.85  2059.75
                             2069.22  2123.01  2127.70  2131.78  2142.94
                             2147.04  2151.11  2175.72  2178.65  4338.06
                             4346.50  4365.62  4400.08  4409.56  4414.95
                             4421.06  4424.34  4438.40  4445.00  4477.26
                             4486.81  4498.58  4502.34  4504.85  4507.18
                             4510.85  4557.83

 Zero-point correction=                           0.281050 (Hartree/Particle)
 Thermal correction to Energy=                    0.292649
 Thermal correction to Enthalpy=                  0.293593
 Thermal correction to Gibbs Free Energy=         0.242732
 Sum of electronic and zero-point Energies=           -617.216102
 Sum of electronic and thermal Energies=              -617.204503
 Sum of electronic and thermal Enthalpies=            -617.203559
 Sum of electronic and thermal Free Energies=         -617.254420

                     E (Thermal)             CV                S
                      KCal/Mol        Cal/Mol-Kelvin    Cal/Mol-Kelvin
 Total                  183.640             46.501            107.046
 Electronic               0.000              0.000              0.000
 Translational            0.889              2.981             41.570
 Rotational               0.889              2.981             30.945
 Vibrational            181.862             40.540             34.531
 Vibration     1          0.593              1.986              6.650
 Vibration     2          0.599              1.966              4.016
 Vibration     3          0.611              1.927              3.000
 Vibration     4          0.614              1.917              2.854
 Vibration     5          0.631              1.861              2.280
 Vibration     6          0.654              1.790              1.852
 Vibration     7          0.666              1.751              1.683
 Vibration     8          0.687              1.691              1.469
 Vibration     9          0.712              1.618              1.267
 Vibration    10          0.749              1.516              1.046
 Vibration    11          0.771              1.456              0.939
 Vibration    12          0.792              1.403              0.856
 Vibration    13          0.806              1.367              0.804
 Vibration    14          0.843              1.279              0.691
 Vibration    15          0.875              1.205              0.609
 Vibration    16          0.886              1.181              0.584
 Vibration    17          0.959              1.031              0.449

 Optimization completed.
    -- Stationary point found.
 Normal termination of Gaussian 16 at Sun Nov  4 23:10:30 2018.
