 Gaussian 16, Revision A.03,
 Gaussian 16:  ES64L-G16RevA.03 25-Dec-2016

 ----------------------------------------------------------------------
 #M062X/6-311++G(2d,2p) opt=ModRedundant freq=noraman SCRF=(Solvent=Wat
 er)
 ----------------------------------------------------------------------

 ---------------------------
 D_1a_4a_L_PSI.inp_extract_9
 ---------------------------
 Symbolic Z-matrix:
 Charge =  0 Multiplicity = 1

 SCF Done:  E(RM062X) =  -617.493248550     A.U. after   12 cycles
 SCF Done:  E(RM062X) =  -617.494718591     A.U. after   12 cycles
 SCF Done:  E(RM062X) =  -617.495272874     A.U. after   12 cycles
 SCF Done:  E(RM062X) =  -617.496078240     A.U. after   10 cycles
 SCF Done:  E(RM062X) =  -617.496101096     A.U. after   11 cycles
 SCF Done:  E(RM062X) =  -617.496201463     A.U. after   11 cycles
 SCF Done:  E(RM062X) =  -617.496206813     A.U. after    8 cycles
 SCF Done:  E(RM062X) =  -617.496207900     A.U. after    8 cycles
 SCF Done:  E(RM062X) =  -617.496207874     A.U. after    7 cycles
 Optimization completed.
    -- Stationary point found.
 Normal termination of Gaussian 16 at Sun Nov  4 22:13:05 2018.

 ----------------------------------------------------------------------
 #N Geom=AllCheck Guess=TCheck SCRF=Check GenChk RM062X/6-311++G(2d,2p)
  Freq
 ----------------------------------------------------------------------

 Structure from the checkpoint file:  "D_1a_4a_L_PSI.inp_extract_9.chk"
 ---------------------------
 D_1a_4a_L_PSI.inp_extract_9
 ---------------------------
 Charge =  0 Multiplicity = 1

                         Standard orientation:
 ---------------------------------------------------------------------
 Center     Atomic      Atomic             Coordinates (Angstroms)
 Number     Number       Type             X           Y           Z
 ---------------------------------------------------------------------
      1          6           0        2.930059    1.124620   -0.056874
      2          6           0        0.833621   -0.798964   -0.508520
      3          6           0       -2.030032   -1.415384   -0.127263
      4          6           0        3.119984   -0.313989    0.421681
      5          6           0       -2.753432    0.940055   -0.556558
      6          8           0       -1.764083    1.423160    0.339390
      7          6           0        1.447865    1.458295   -0.095293
      8          6           0       -1.125673   -0.883586    0.987262
      9          6           0       -2.328393   -0.369056   -1.205950
     10          6           0       -1.547186    0.522196    1.403897
     11          8           0        0.730026    0.541445   -0.916959
     12          8           0        0.279622   -1.040664    0.760207
     13          6           0        2.286427   -1.252970   -0.448879
     14          1           0        3.347869    1.238844   -1.060194
     15          1           0        3.442937    1.829622    0.598209
     16          1           0       -2.972815   -1.698806    0.346312
     17          1           0        4.170568   -0.600489    0.382898
     18          1           0        2.798277   -0.396802    1.461731
     19          1           0        1.032651    1.445355    0.915165
     20          1           0        1.266090    2.440977   -0.524967
     21          1           0       -1.453829   -0.178156   -1.825323
     22          1           0       -3.129049   -0.722573   -1.856707
     23          1           0       -2.475173    0.420163    1.982776
     24          1           0       -0.789564    0.960199    2.051105
     25          1           0        2.672681   -1.246210   -1.469863
     26          1           0        2.322253   -2.278363   -0.083719
     27          1           0        0.289483   -1.361613   -1.268692
     28          1           0       -3.696233    0.800852   -0.010686
     29          1           0       -2.901120    1.719692   -1.300999
     30          1           0       -1.604716   -2.326064   -0.549206
     31          1           0       -1.284272   -1.505467    1.870036
 ---------------------------------------------------------------------

 SCF Done:  E(RM062X) =  -617.496207874     A.U. after    1 cycles

 The electronic state is 1-A.
 Alpha  occ. eigenvalues --  -19.62849 -19.62457 -19.62452 -10.63186 -10.58918
 Alpha  occ. eigenvalues --  -10.57909 -10.57770 -10.57463 -10.53514 -10.52873
 Alpha  occ. eigenvalues --  -10.52834 -10.52778 -10.52699  -1.19509  -1.16090
 Alpha  occ. eigenvalues --   -1.13017  -0.90709  -0.89354  -0.87420  -0.84328
 Alpha  occ. eigenvalues --   -0.75054  -0.73926  -0.72922  -0.70931  -0.65993
 Alpha  occ. eigenvalues --   -0.62141  -0.59390  -0.58635  -0.56746  -0.55581
 Alpha  occ. eigenvalues --   -0.53830  -0.53200  -0.51432  -0.51255  -0.49416
 Alpha  occ. eigenvalues --   -0.48525  -0.46393  -0.45826  -0.45461  -0.45150
 Alpha  occ. eigenvalues --   -0.43254  -0.42531  -0.41290  -0.39833  -0.39087
 Alpha  occ. eigenvalues --   -0.38378  -0.37362  -0.35608  -0.34961  -0.32997
 Alpha  occ. eigenvalues --   -0.31187
 Alpha virt. eigenvalues --   -0.00209   0.00731   0.00934   0.01112   0.02359
 Alpha virt. eigenvalues --    0.02603   0.02721   0.03250   0.03334   0.04840
 Alpha virt. eigenvalues --    0.04987   0.05220   0.05533   0.05701   0.07204

 Mulliken charges:
               1
     1  C   -0.454084
     2  C   -0.164585
     3  C   -0.574506
     4  C   -0.275518
     5  C   -0.315326
     6  O   -0.236931
     7  C    0.025272
     8  C    0.425599
     9  C   -0.124537
    10  C   -0.646523
    11  O   -0.185160
    12  O   -0.313227
    13  C   -0.608829
    14  H    0.158352
    15  H    0.175696
    16  H    0.228156
    17  H    0.187715
    18  H    0.167941
    19  H    0.131171
    20  H    0.210922
    21  H    0.203075
    22  H    0.200766
    23  H    0.172627
    24  H    0.220730
    25  H    0.193002
    26  H    0.187116
    27  H    0.231112
    28  H    0.154344
    29  H    0.197622
    30  H    0.183896
    31  H    0.244111
 Sum of Mulliken charges =  -0.00000

 Dipole moment (field-independent basis, Debye):
    X=             -0.7573    Y=             -1.6634    Z=              0.2644  Tot=              1.8467
 Quadrupole moment (field-independent basis, Debye-Ang):
   XX=            -70.7020   YY=            -81.7647   ZZ=            -79.4612
   XY=              4.4449   XZ=             -0.2830   YZ=              1.8308

  Exact polarizability: 169.045   1.082 159.294   0.894   0.028 155.475
 Approx polarizability: 144.732   1.599 142.910   0.134  -1.013 144.850

                      1                      2                      3
                      A                      A                      A
 Frequencies --     49.9271               112.3172               120.9027
 Red. masses --      4.1273                 3.3312                 3.5913
 Frc consts  --      0.0061                 0.0248                 0.0309
 IR Inten    --      1.1354                 4.3599                 1.7423

                      4                      5                      6
                      A                      A                      A
 Frequencies --    144.1560               181.9530               222.5839
 Red. masses --      3.7635                 3.7670                 2.7786
 Frc consts  --      0.0461                 0.0735                 0.0811
 IR Inten    --      3.9874                 1.1816                 9.8462

                      7                      8                      9
                      A                      A                      A
 Frequencies --    262.2774               306.8314               315.6456
 Red. masses --      3.0987                 2.2636                 2.0407
 Frc consts  --      0.1256                 0.1256                 0.1198
 IR Inten    --      6.8244                 9.0846                 1.4325

                     10                     11                     12
                      A                      A                      A
 Frequencies --    384.0384               412.1801               433.8307
 Red. masses --      1.9892                 2.5879                 2.1771
 Frc consts  --      0.1729                 0.2590                 0.2414
 IR Inten    --      7.7559                 2.0365                 6.5646

                     13                     14                     15
                      A                      A                      A
 Frequencies --    438.5754               491.6621               513.8849
 Red. masses --      3.4146                 3.4662                 2.6564
 Frc consts  --      0.3870                 0.4937                 0.4133
 IR Inten    --      7.4437                12.5362                 3.2885

                     16                     17                     18
                      A                      A                      A
 Frequencies --    533.1099               581.9721               674.2301
 Red. masses --      2.1655                 2.9243                 3.0424
 Frc consts  --      0.3626                 0.5836                 0.8149
 IR Inten    --     10.1029                 4.4442                 1.6078

                     19                     20                     21
                      A                      A                      A
 Frequencies --    750.6835               792.4385               836.8036
 Red. masses --      2.3784                 3.0883                 1.5836
 Frc consts  --      0.7897                 1.1426                 0.6533
 IR Inten    --      7.4778                 4.3217                 3.8488

                     22                     23                     24
                      A                      A                      A
 Frequencies --    844.3999               857.7996               873.2481
 Red. masses --      3.3760                 1.7232                 2.5215
 Frc consts  --      1.4182                 0.7471                 1.1329
 IR Inten    --      3.5010                 5.6876                10.7867

                     25                     26                     27
                      A                      A                      A
 Frequencies --    896.7349               908.9403               915.0352
 Red. masses --      2.3519                 2.6338                 2.4860
 Frc consts  --      1.1143                 1.2821                 1.2264
 IR Inten    --     16.3430                37.6387                27.9882

                     28                     29                     30
                      A                      A                      A
 Frequencies --    924.1337               967.0872               981.7674
 Red. masses --      1.8384                 1.7336                 2.0006
 Frc consts  --      0.9250                 0.9553                 1.1361
 IR Inten    --     25.4982                 9.9979                51.9058

                     31                     32                     33
                      A                      A                      A
 Frequencies --   1038.5886              1041.3120              1058.7640
 Red. masses --      2.0148                 2.2351                 2.3124
 Frc consts  --      1.2804                 1.4279                 1.5272
 IR Inten    --      4.7005                12.9012               150.7516

                     34                     35                     36
                      A                      A                      A
 Frequencies --   1066.6836              1069.8925              1077.2394
 Red. masses --      1.7320                 1.7374                 2.2907
 Frc consts  --      1.1611                 1.1717                 1.5662
 IR Inten    --     93.2201                79.4629                57.3168

                     37                     38                     39
                      A                      A                      A
 Frequencies --   1102.9653              1153.2317              1158.5526
 Red. masses --      1.5487                 3.0296                 2.3137
 Frc consts  --      1.1101                 2.3740                 1.8297
 IR Inten    --     39.5215               107.0164                26.4487

                     40                     41                     42
                      A                      A                      A
 Frequencies --   1172.8876              1194.6708              1211.1471
 Red. masses --      2.9112                 2.9042                 1.4194
 Frc consts  --      2.3596                 2.4421                 1.2267
 IR Inten    --     99.3224               123.9562                19.2553

                     43                     44                     45
                      A                      A                      A
 Frequencies --   1234.2054              1241.3146              1250.7179
 Red. masses --      1.5438                 1.4570                 1.9168
 Frc consts  --      1.3855                 1.3228                 1.7666
 IR Inten    --     67.2635                59.7227                50.1467

                     46                     47                     48
                      A                      A                      A
 Frequencies --   1288.6930              1317.8451              1322.2447
 Red. masses --      1.2162                 1.1479                 1.1871
 Frc consts  --      1.1900                 1.1746                 1.2228
 IR Inten    --     18.1955                 8.8910                30.6979

                     49                     50                     51
                      A                      A                      A
 Frequencies --   1347.7907              1360.5275              1364.6983
 Red. masses --      1.3734                 1.3576                 1.4503
 Frc consts  --      1.4699                 1.4806                 1.5914
 IR Inten    --     35.1972                 2.7762                 2.5825

                     52                     53                     54
                      A                      A                      A
 Frequencies --   1373.1215              1384.7243              1391.3967
 Red. masses --      1.3605                 1.4712                 1.7102
 Frc consts  --      1.5114                 1.6620                 1.9508
 IR Inten    --     10.1072                 1.0029                11.0521

                     55                     56                     57
                      A                      A                      A
 Frequencies --   1394.5164              1402.8484              1403.5535
 Red. masses --      1.4357                 1.3054                 1.3355
 Frc consts  --      1.6449                 1.5136                 1.5500
 IR Inten    --      3.9874                 1.9312                 9.8292

                     58                     59                     60
                      A                      A                      A
 Frequencies --   1413.9029              1431.4006              1434.2338
 Red. masses --      1.3591                 1.3378                 1.2204
 Frc consts  --      1.6008                 1.6149                 1.4790
 IR Inten    --     14.8125                 2.6503                 3.9449

                     61                     62                     63
                      A                      A                      A
 Frequencies --   1441.3913              1476.1654              1481.8407
 Red. masses --      1.2831                 1.1036                 1.0848
 Frc consts  --      1.5707                 1.4169                 1.4035
 IR Inten    --     28.1746                 5.1329                 7.7438

                     64                     65                     66
                      A                      A                      A
 Frequencies --   1482.2456              1488.6906              1491.4657
 Red. masses --      1.0871                 1.1098                 1.0856
 Frc consts  --      1.4073                 1.4491                 1.4228
 IR Inten    --      7.4298                22.1364                 3.6264

                     67                     68                     69
                      A                      A                      A
 Frequencies --   1495.6740              1508.6504              1512.4548
 Red. masses --      1.1093                 1.0935                 1.1044
 Frc consts  --      1.4621                 1.4663                 1.4885
 IR Inten    --     12.8640                 4.4115                10.3445

                     70                     71                     72
                      A                      A                      A
 Frequencies --   3005.3584              3007.9137              3060.5313
 Red. masses --      1.0710                 1.0711                 1.0653
 Frc consts  --      5.6993                 5.7098                 5.8790
 IR Inten    --     72.2686                90.0651                31.9895

                     73                     74                     75
                      A                      A                      A
 Frequencies --   3066.4221              3070.9797              3073.9364
 Red. masses --      1.0678                 1.0629                 1.0627
 Frc consts  --      5.9155                 5.9062                 5.9161
 IR Inten    --      8.9443                33.4325                57.6956

                     76                     77                     78
                      A                      A                      A
 Frequencies --   3076.8266              3081.6726              3086.1608
 Red. masses --      1.0642                 1.0811                 1.0648
 Frc consts  --      5.9357                 6.0490                 5.9750
 IR Inten    --     14.1126                90.9812                21.4874

                     79                     80                     81
                      A                      A                      A
 Frequencies --   3094.8587              3111.8833              3114.6744
 Red. masses --      1.0844                 1.0974                 1.0996
 Frc consts  --      6.1194                 6.2611                 6.2851
 IR Inten    --     85.2928                36.7488                30.9867

                     82                     83                     84
                      A                      A                      A
 Frequencies --   3117.6802              3126.6242              3131.4511
 Red. masses --      1.1024                 1.0926                 1.1023
 Frc consts  --      6.3132                 6.2929                 6.3688
 IR Inten    --     73.2819                51.3236                35.6178

                     85                     86                     87
                      A                      A                      A
 Frequencies --   3131.6586              3136.0401              3141.7839
 Red. masses --      1.0942                 1.0999                 1.1004
 Frc consts  --      6.3228                 6.3733                 6.3995
 IR Inten    --     38.8852                48.4058                37.1355

 - Thermochemistry -
 -------------------
 Temperature   298.150 Kelvin.  Pressure   1.00000 Atm.
 Atom     1 has atomic number  6 and mass  12.00000

 Molecular mass:   186.12559 amu.
 Principal axes and moments of inertia in atomic units:
                           1         2         3
     Eigenvalues --  1172.135743077.354483404.18867
           X            0.99993   0.01072   0.00534
           Y           -0.01088   0.99945   0.03132
           Z           -0.00500  -0.03138   0.99950
 This molecule is an asymmetric top.
 Rotational symmetry number  1.
 Warning -- assumption of classical behavior for rotation
           may cause significant error
 Rotational temperatures (Kelvin)      0.07389     0.02815     0.02544
 Rotational constants (GHZ):           1.53970     0.58646     0.53015
 Zero-point vibrational energy     738382.1 (Joules/Mol)
                                  176.47757 (Kcal/Mol)
 Warning -- explicit consideration of  17 degrees of freedom as
           vibrations may cause significant error
 Vibrational temperatures:     71.83   161.60   173.95   207.41   261.79
          (Kelvin)            320.25   377.36   441.46   454.14   552.55
                              593.04   624.19   631.01   707.39   739.37
                              767.03   837.33   970.07  1080.07  1140.14
                             1203.97  1214.90  1234.18  1256.41  1290.20
                             1307.76  1316.53  1329.62  1391.42  1412.54
                             1494.30  1498.22  1523.33  1534.72  1539.34
                             1549.91  1586.92  1659.24  1666.90  1687.52
                             1718.86  1742.57  1775.75  1785.97  1799.50
                             1854.14  1896.09  1902.42  1939.17  1957.50
                             1963.50  1975.62  1992.31  2001.91  2006.40
                             2018.39  2019.40  2034.29  2059.47  2063.54
                             2073.84  2123.87  2132.04  2132.62  2141.89
                             2145.89  2151.94  2170.61  2176.09  4324.04
                             4327.72  4403.42  4411.90  4418.45  4422.71
                             4426.87  4433.84  4440.30  4452.81  4477.31
                             4481.32  4485.65  4498.51  4505.46  4505.76
                             4512.06  4520.33

 Zero-point correction=                           0.281235 (Hartree/Particle)
 Thermal correction to Energy=                    0.292702
 Thermal correction to Enthalpy=                  0.293646
 Thermal correction to Gibbs Free Energy=         0.244043
 Sum of electronic and zero-point Energies=           -617.214973
 Sum of electronic and thermal Energies=              -617.203506
 Sum of electronic and thermal Enthalpies=            -617.202562
 Sum of electronic and thermal Free Energies=         -617.252165

                     E (Thermal)             CV                S
                      KCal/Mol        Cal/Mol-Kelvin    Cal/Mol-Kelvin
 Total                  183.673             46.474            104.399
 Electronic               0.000              0.000              0.000
 Translational            0.889              2.981             41.570
 Rotational               0.889              2.981             30.885
 Vibrational            181.896             40.512             31.944
 Vibration     1          0.595              1.978              4.820
 Vibration     2          0.607              1.939              3.228
 Vibration     3          0.609              1.932              3.086
 Vibration     4          0.616              1.909              2.748
 Vibration     5          0.630              1.864              2.308
 Vibration     6          0.648              1.807              1.938
 Vibration     7          0.670              1.742              1.647
 Vibration     8          0.697              1.661              1.379
 Vibration     9          0.703              1.644              1.333
 Vibration    10          0.753              1.504              1.023
 Vibration    11          0.776              1.444              0.919
 Vibration    12          0.795              1.397              0.846
 Vibration    13          0.799              1.386              0.831
 Vibration    14          0.847              1.269              0.679
 Vibration    15          0.869              1.219              0.624
 Vibration    16          0.888              1.177              0.580
 Vibration    17          0.939              1.070              0.482

 Optimization completed.
    -- Stationary point found.
 Normal termination of Gaussian 16 at Sun Nov  4 23:13:40 2018.
