 Gaussian 16, Revision A.03,
 Gaussian 16:  ES64L-G16RevA.03 25-Dec-2016

 ----------------------------------------------------------------------
 #M062X/6-311++G(2d,2p) opt=ModRedundant freq=noraman SCRF=(Solvent=Wat
 er)
 ----------------------------------------------------------------------

 ----------------------------
 D_1a_4a_L_PSI.inp_extract_22
 ----------------------------
 Symbolic Z-matrix:
 Charge =  0 Multiplicity = 1

 SCF Done:  E(RM062X) =  -617.501711069     A.U. after   12 cycles
 SCF Done:  E(RM062X) =  -617.503398104     A.U. after   11 cycles
 SCF Done:  E(RM062X) =  -617.503536193     A.U. after   10 cycles
 SCF Done:  E(RM062X) =  -617.503558372     A.U. after    9 cycles
 SCF Done:  E(RM062X) =  -617.503560598     A.U. after    8 cycles
 SCF Done:  E(RM062X) =  -617.503560820     A.U. after    6 cycles
 Optimization completed.
    -- Stationary point found.
 Normal termination of Gaussian 16 at Sun Nov  4 21:55:26 2018.

 ----------------------------------------------------------------------
 #N Geom=AllCheck Guess=TCheck SCRF=Check GenChk RM062X/6-311++G(2d,2p)
  Freq
 ----------------------------------------------------------------------

 Structure from the checkpoint file:  "D_1a_4a_L_PSI.inp_extract_22.chk"
 ----------------------------
 D_1a_4a_L_PSI.inp_extract_22
 ----------------------------
 Charge =  0 Multiplicity = 1

                         Standard orientation:
 ---------------------------------------------------------------------
 Center     Atomic      Atomic             Coordinates (Angstroms)
 Number     Number       Type             X           Y           Z
 ---------------------------------------------------------------------
      1          6           0        3.245615    0.746944    0.583150
      2          6           0        1.182366   -0.835158   -0.653531
      3          6           0       -1.556719    1.302669   -0.592058
      4          6           0        2.624000   -0.409849    1.363030
      5          6           0       -3.307298    0.264740    0.844593
      6          8           0       -2.773225   -1.025851    0.578924
      7          6           0        2.235674    1.284111   -0.415989
      8          6           0       -1.070133   -0.108319   -0.900356
      9          6           0       -2.228375    1.335064    0.779783
     10          6           0       -2.204453   -1.105556   -0.715466
     11          8           0        1.782589    0.263400   -1.307257
     12          8           0       -0.006316   -0.456831   -0.012102
     13          6           0        2.105999   -1.458142    0.380356
     14          1           0        4.132011    0.399829    0.046706
     15          1           0        3.554845    1.552497    1.249791
     16          1           0       -2.279090    1.591648   -1.359718
     17          1           0        3.349513   -0.857691    2.041177
     18          1           0        1.797207   -0.035840    1.970527
     19          1           0        1.379724    1.708859    0.115613
     20          1           0        2.665665    2.056033   -1.050215
     21          1           0       -1.489072    1.143726    1.559464
     22          1           0       -2.671716    2.312108    0.972403
     23          1           0       -2.974559   -0.919301   -1.474375
     24          1           0       -1.832797   -2.122197   -0.833083
     25          1           0        2.945407   -1.903532   -0.156784
     26          1           0        1.571201   -2.259261    0.888736
     27          1           0        0.961020   -1.543345   -1.456111
     28          1           0       -4.097484    0.484492    0.115111
     29          1           0       -3.757979    0.210746    1.833339
     30          1           0       -0.721637    1.999537   -0.648035
     31          1           0       -0.716708   -0.163088   -1.932142
 ---------------------------------------------------------------------

 SCF Done:  E(RM062X) =  -617.503560820     A.U. after    1 cycles

 The electronic state is 1-A.
 Alpha  occ. eigenvalues --  -19.62960 -19.62931 -19.62837 -10.63491 -10.58712
 Alpha  occ. eigenvalues --  -10.57998 -10.57906 -10.57744 -10.53187 -10.53065
 Alpha  occ. eigenvalues --  -10.53001 -10.52920 -10.52857  -1.20018  -1.16403
 Alpha  occ. eigenvalues --   -1.13119  -0.91021  -0.89724  -0.87050  -0.84539
 Alpha  occ. eigenvalues --   -0.74210  -0.73987  -0.72823  -0.71671  -0.66292
 Alpha  occ. eigenvalues --   -0.62815  -0.59594  -0.57975  -0.57836  -0.55519
 Alpha  occ. eigenvalues --   -0.54375  -0.53041  -0.51708  -0.51123  -0.50052
 Alpha  occ. eigenvalues --   -0.48176  -0.46702  -0.46134  -0.45737  -0.44890
 Alpha  occ. eigenvalues --   -0.43518  -0.43158  -0.41175  -0.40195  -0.38991
 Alpha  occ. eigenvalues --   -0.38291  -0.37298  -0.36273  -0.35447  -0.33433
 Alpha  occ. eigenvalues --   -0.31730
 Alpha virt. eigenvalues --   -0.00149   0.00825   0.00830   0.01097   0.02252
 Alpha virt. eigenvalues --    0.02559   0.02736   0.03241   0.03289   0.04687
 Alpha virt. eigenvalues --    0.04880   0.04995   0.05408   0.05826   0.07075

 Mulliken charges:
               1
     1  C   -0.380426
     2  C   -0.153917
     3  C   -0.358094
     4  C   -0.323747
     5  C   -0.238843
     6  O   -0.311906
     7  C   -0.110148
     8  C    0.119245
     9  C   -0.317102
    10  C   -0.378462
    11  O   -0.296228
    12  O   -0.232280
    13  C   -0.330537
    14  H    0.163020
    15  H    0.172057
    16  H    0.214092
    17  H    0.185583
    18  H    0.172175
    19  H    0.127538
    20  H    0.215063
    21  H    0.156551
    22  H    0.176885
    23  H    0.176396
    24  H    0.198465
    25  H    0.192333
    26  H    0.177901
    27  H    0.223568
    28  H    0.152498
    29  H    0.199202
    30  H    0.158742
    31  H    0.250378
 Sum of Mulliken charges =  -0.00000

 Dipole moment (field-independent basis, Debye):
    X=              0.3414    Y=              1.6372    Z=             -0.6586  Tot=              1.7974
 Quadrupole moment (field-independent basis, Debye-Ang):
   XX=            -75.8900   YY=            -77.6296   ZZ=            -81.6525
   XY=             -5.5268   XZ=              6.7361   YZ=              4.1268

  Exact polarizability: 168.876  -0.102 160.163   0.322   2.417 154.872
 Approx polarizability: 144.634  -0.903 143.109  -0.695   1.402 143.533

 ******    1 imaginary frequencies (negative Signs) ******

                      1                      2                      3
                      A                      A                      A
 Frequencies --    -38.7165                73.5994                77.0933
 Red. masses --      3.8423                 3.5634                 3.9582
 Frc consts  --      0.0034                 0.0114                 0.0139
 IR Inten    --      0.4932                 2.1245                 5.5954

                      4                      5                      6
                      A                      A                      A
 Frequencies --    139.7588               171.1782               234.8439
 Red. masses --      3.1305                 3.3309                 2.9931
 Frc consts  --      0.0360                 0.0575                 0.0973
 IR Inten    --      2.7088                 2.2477                 1.7163

                      7                      8                      9
                      A                      A                      A
 Frequencies --    249.2644               282.1906               334.9615
 Red. masses --      2.9126                 2.3422                 2.0375
 Frc consts  --      0.1066                 0.1099                 0.1347
 IR Inten    --      4.7127                 7.7493                 0.7197

                     10                     11                     12
                      A                      A                      A
 Frequencies --    380.5230               412.3513               435.4563
 Red. masses --      2.1194                 2.4313                 3.7041
 Frc consts  --      0.1808                 0.2436                 0.4138
 IR Inten    --      1.3792                 5.3308                 9.0928

                     13                     14                     15
                      A                      A                      A
 Frequencies --    438.3315               500.6881               525.0907
 Red. masses --      2.0226                 3.1197                 2.5797
 Frc consts  --      0.2290                 0.4608                 0.4191
 IR Inten    --      3.5919                15.0039                 8.0302

                     16                     17                     18
                      A                      A                      A
 Frequencies --    527.8211               582.4263               669.1813
 Red. masses --      2.4611                 3.2910                 2.6091
 Frc consts  --      0.4040                 0.6578                 0.6884
 IR Inten    --      5.9201                 9.1597                 3.2611

                     19                     20                     21
                      A                      A                      A
 Frequencies --    747.8223               830.6798               836.4383
 Red. masses --      2.5433                 1.6433                 3.1680
 Frc consts  --      0.8380                 0.6681                 1.3059
 IR Inten    --      3.7546                 0.5128                17.0664

                     22                     23                     24
                      A                      A                      A
 Frequencies --    855.8079               871.6719               878.7246
 Red. masses --      3.4997                 1.9670                 1.6565
 Frc consts  --      1.5102                 0.8806                 0.7536
 IR Inten    --      1.5720                11.5547                13.1092

                     25                     26                     27
                      A                      A                      A
 Frequencies --    895.0811               904.9405               908.4110
 Red. masses --      2.5005                 2.5405                 2.3701
 Frc consts  --      1.1803                 1.2258                 1.1524
 IR Inten    --     19.9379                42.2438                36.9352

                     28                     29                     30
                      A                      A                      A
 Frequencies --    934.8033               950.2063              1009.0749
 Red. masses --      1.8046                 1.6909                 1.6843
 Frc consts  --      0.9291                 0.8995                 1.0105
 IR Inten    --     12.9260                 8.9186                36.7301

                     31                     32                     33
                      A                      A                      A
 Frequencies --   1036.1713              1043.9062              1057.4795
 Red. masses --      2.2427                 2.0334                 2.7766
 Frc consts  --      1.4187                 1.3056                 1.8294
 IR Inten    --     11.9463               110.1540                93.0711

                     34                     35                     36
                      A                      A                      A
 Frequencies --   1060.0991              1069.7996              1076.9754
 Red. masses --      1.7629                 1.7776                 2.5112
 Frc consts  --      1.1672                 1.1987                 1.7161
 IR Inten    --     73.0456                54.0675               144.7026

                     37                     38                     39
                      A                      A                      A
 Frequencies --   1097.0032              1146.3639              1153.9357
 Red. masses --      1.5245                 2.2178                 2.8241
 Frc consts  --      1.0809                 1.7172                 2.2156
 IR Inten    --     32.8055                91.1124               126.4775

                     40                     41                     42
                      A                      A                      A
 Frequencies --   1171.8836              1182.6124              1211.2401
 Red. masses --      3.3744                 2.6614                 1.4319
 Frc consts  --      2.7304                 2.1930                 1.2377
 IR Inten    --    139.4230                35.0737                18.3560

                     43                     44                     45
                      A                      A                      A
 Frequencies --   1228.3439              1233.4818              1244.8494
 Red. masses --      1.3992                 1.6178                 1.8355
 Frc consts  --      1.2438                 1.4502                 1.6759
 IR Inten    --     44.2741                59.1980                29.4057

                     46                     47                     48
                      A                      A                      A
 Frequencies --   1288.3878              1302.1707              1321.1594
 Red. masses --      1.2098                 1.1469                 1.1510
 Frc consts  --      1.1832                 1.1458                 1.1837
 IR Inten    --     26.1648                 7.0702                 7.8521

                     49                     50                     51
                      A                      A                      A
 Frequencies --   1336.7777              1359.1146              1360.2754
 Red. masses --      1.2348                 1.3462                 1.4873
 Frc consts  --      1.3000                 1.4651                 1.6214
 IR Inten    --     14.2237                15.5418                 1.4199

                     52                     53                     54
                      A                      A                      A
 Frequencies --   1367.2337              1378.6992              1386.6535
 Red. masses --      1.5017                 1.3357                 1.4830
 Frc consts  --      1.6540                 1.4959                 1.6800
 IR Inten    --      4.3581                37.0691                 1.8001

                     55                     56                     57
                      A                      A                      A
 Frequencies --   1390.6481              1396.0902              1403.9601
 Red. masses --      1.4950                 1.5094                 1.4241
 Frc consts  --      1.7035                 1.7333                 1.6538
 IR Inten    --      6.9222                38.4012                11.2740

                     58                     59                     60
                      A                      A                      A
 Frequencies --   1405.0423              1426.4609              1433.7797
 Red. masses --      1.3541                 1.3732                 1.3853
 Frc consts  --      1.5750                 1.6463                 1.6778
 IR Inten    --      7.3971                16.4362                 9.5552

                     61                     62                     63
                      A                      A                      A
 Frequencies --   1442.2772              1474.6057              1478.8783
 Red. masses --      1.3215                 1.1078                 1.0867
 Frc consts  --      1.6196                 1.4193                 1.4004
 IR Inten    --      2.9804                 5.3290                 5.9387

                     64                     65                     66
                      A                      A                      A
 Frequencies --   1481.3573              1487.8582              1492.3274
 Red. masses --      1.0869                 1.1147                 1.0908
 Frc consts  --      1.4053                 1.4539                 1.4313
 IR Inten    --      8.9975                15.5867                 1.8807

                     67                     68                     69
                      A                      A                      A
 Frequencies --   1494.2562              1508.3986              1510.4714
 Red. masses --      1.1102                 1.0939                 1.1009
 Frc consts  --      1.4605                 1.4665                 1.4799
 IR Inten    --     14.4826                 5.1932                 6.6845

                     70                     71                     72
                      A                      A                      A
 Frequencies --   3010.9199              3020.0614              3055.9857
 Red. masses --      1.0708                 1.0691                 1.0685
 Frc consts  --      5.7197                 5.7453                 5.8793
 IR Inten    --     77.1430                72.1133                47.9002

                     73                     74                     75
                      A                      A                      A
 Frequencies --   3063.4099              3063.8323              3065.4782
 Red. masses --      1.0794                 1.0647                 1.0685
 Frc consts  --      5.9684                 5.8885                 5.9160
 IR Inten    --     21.3398                31.9335                36.3993

                     76                     77                     78
                      A                      A                      A
 Frequencies --   3069.4805              3076.4540              3080.2493
 Red. masses --      1.0630                 1.0604                 1.0680
 Frc consts  --      5.9009                 5.9134                 5.9702
 IR Inten    --     35.3770                23.2642                31.0295

                     79                     80                     81
                      A                      A                      A
 Frequencies --   3084.0846              3113.8157              3118.5423
 Red. masses --      1.0824                 1.0977                 1.1024
 Frc consts  --      6.0658                 6.2705                 6.3165
 IR Inten    --     98.9885                35.3276                62.2447

                     82                     83                     84
                      A                      A                      A
 Frequencies --   3121.1235              3126.6245              3127.3045
 Red. masses --      1.1000                 1.0992                 1.0948
 Frc consts  --      6.3137                 6.3313                 6.3083
 IR Inten    --     52.8905                56.1397                43.7842

                     85                     86                     87
                      A                      A                      A
 Frequencies --   3130.8804              3131.5888              3136.3672
 Red. masses --      1.1027                 1.0955                 1.0991
 Frc consts  --      6.3686                 6.3298                 6.3701
 IR Inten    --     41.1433                35.7637                37.7535

 - Thermochemistry -
 -------------------
 Temperature   298.150 Kelvin.  Pressure   1.00000 Atm.
 Atom     1 has atomic number  6 and mass  12.00000

 Molecular mass:   186.12559 amu.
 Principal axes and moments of inertia in atomic units:
                           1         2         3
     Eigenvalues --  1124.680623796.209373970.20603
           X            0.99986  -0.01081   0.01245
           Y            0.01000   0.99795   0.06324
           Z           -0.01310  -0.06311   0.99792
 This molecule is an asymmetric top.
 Rotational symmetry number  1.
 Warning -- assumption of classical behavior for rotation
           may cause significant error
 Rotational temperatures (Kelvin)      0.07701     0.02282     0.02182
 Rotational constants (GHZ):           1.60467     0.47541     0.45457
    1 imaginary frequencies ignored.
 Zero-point vibrational energy     736873.6 (Joules/Mol)
                                  176.11703 (Kcal/Mol)
 Warning -- explicit consideration of  16 degrees of freedom as
           vibrations may cause significant error
 Vibrational temperatures:    105.89   110.92   201.08   246.29   337.89
          (Kelvin)            358.64   406.01   481.93   547.49   593.28
                              626.52   630.66   720.38   755.49   759.42
                              837.98   962.80  1075.95  1195.16  1203.45
                             1231.32  1254.14  1264.29  1287.82  1302.01
                             1307.00  1344.97  1367.13  1451.83  1490.82
                             1501.95  1521.48  1525.25  1539.20  1549.53
                             1578.34  1649.36  1660.26  1686.08  1701.52
                             1742.70  1767.31  1774.71  1791.06  1853.70
                             1873.53  1900.85  1923.32  1955.46  1957.13
                             1967.14  1983.64  1995.09  2000.83  2008.66
                             2019.99  2021.54  2052.36  2062.89  2075.12
                             2121.63  2127.78  2131.34  2140.70  2147.13
                             2149.90  2170.25  2173.23  4332.04  4345.19
                             4396.88  4407.56  4408.17  4410.54  4416.30
                             4426.33  4431.79  4437.31  4480.09  4486.89
                             4490.60  4498.52  4499.49  4504.64  4505.66
                             4512.53

 Zero-point correction=                           0.280660 (Hartree/Particle)
 Thermal correction to Energy=                    0.291468
 Thermal correction to Enthalpy=                  0.292413
 Thermal correction to Gibbs Free Energy=         0.244063
 Sum of electronic and zero-point Energies=           -617.222900
 Sum of electronic and thermal Energies=              -617.212092
 Sum of electronic and thermal Enthalpies=            -617.211148
 Sum of electronic and thermal Free Energies=         -617.259498

                     E (Thermal)             CV                S
                      KCal/Mol        Cal/Mol-Kelvin    Cal/Mol-Kelvin
 Total                  182.899             44.530            101.761
 Electronic               0.000              0.000              0.000
 Translational            0.889              2.981             41.570
 Rotational               0.889              2.981             31.206
 Vibrational            181.122             38.569             28.986
 Vibration     1          0.599              1.966              4.055
 Vibration     2          0.599              1.964              3.964
 Vibration     3          0.615              1.914              2.807
 Vibration     4          0.626              1.878              2.423
 Vibration     5          0.655              1.788              1.842
 Vibration     6          0.662              1.764              1.736
 Vibration     7          0.681              1.707              1.520
 Vibration     8          0.716              1.606              1.236
 Vibration     9          0.750              1.512              1.037
 Vibration    10          0.776              1.443              0.918
 Vibration    11          0.796              1.393              0.841
 Vibration    12          0.799              1.387              0.832
 Vibration    13          0.856              1.248              0.656
 Vibration    14          0.880              1.194              0.598
 Vibration    15          0.883              1.188              0.592
 Vibration    16          0.939              1.069              0.481

 Optimization completed.
    -- Stationary point found.
 Normal termination of Gaussian 16 at Sun Nov  4 22:58:55 2018.
