 Gaussian 16, Revision A.03,
 Gaussian 16:  ES64L-G16RevA.03 25-Dec-2016

 ----------------------------------------------------------------------
 #M062X/6-311++G(2d,2p) opt=ModRedundant freq=noraman SCRF=(Solvent=Wat
 er)
 ----------------------------------------------------------------------

 ----------------------------
 D_1a_4a_L_PSI.inp_extract_19
 ----------------------------
 Symbolic Z-matrix:
 Charge =  0 Multiplicity = 1

 SCF Done:  E(RM062X) =  -617.502244642     A.U. after   12 cycles
 SCF Done:  E(RM062X) =  -617.503981289     A.U. after   10 cycles
 SCF Done:  E(RM062X) =  -617.504168944     A.U. after   10 cycles
 SCF Done:  E(RM062X) =  -617.504239709     A.U. after   10 cycles
 SCF Done:  E(RM062X) =  -617.504252076     A.U. after    9 cycles
 SCF Done:  E(RM062X) =  -617.504220497     A.U. after   10 cycles
 SCF Done:  E(RM062X) =  -617.504244247     A.U. after   10 cycles
 SCF Done:  E(RM062X) =  -617.504261838     A.U. after    9 cycles
 SCF Done:  E(RM062X) =  -617.504245148     A.U. after    9 cycles
 SCF Done:  E(RM062X) =  -617.504245825     A.U. after    7 cycles
 SCF Done:  E(RM062X) =  -617.504251913     A.U. after    1 cycles
 SCF Done:  E(RM062X) =  -617.504245114     A.U. after    9 cycles
 SCF Done:  E(RM062X) =  -617.504249810     A.U. after    8 cycles
 SCF Done:  E(RM062X) =  -617.504251919     A.U. after    8 cycles
 SCF Done:  E(RM062X) =  -617.504245207     A.U. after    9 cycles
 SCF Done:  E(RM062X) =  -617.504246163     A.U. after    7 cycles
 SCF Done:  E(RM062X) =  -617.504250684     A.U. after    8 cycles
 SCF Done:  E(RM062X) =  -617.504251847     A.U. after    8 cycles
 SCF Done:  E(RM062X) =  -617.504246070     A.U. after    9 cycles
 Optimization completed.
    -- Stationary point found.
 Normal termination of Gaussian 16 at Mon Nov  5 05:44:46 2018.

 ----------------------------------------------------------------------
 #N Geom=AllCheck Guess=TCheck SCRF=Check GenChk RM062X/6-311++G(2d,2p)
  Freq
 ----------------------------------------------------------------------

 Structure from the checkpoint file:  "D_1a_4a_L_PSI.inp_extract_19.chk"
 ----------------------------
 D_1a_4a_L_PSI.inp_extract_19
 ----------------------------
 Charge =  0 Multiplicity = 1

                         Standard orientation:
 ---------------------------------------------------------------------
 Center     Atomic      Atomic             Coordinates (Angstroms)
 Number     Number       Type             X           Y           Z
 ---------------------------------------------------------------------
      1          6           0        3.438192    0.630597   -0.084699
      2          6           0        1.025934   -0.915723    0.145262
      3          6           0       -1.728155    1.385650   -0.626142
      4          6           0        2.734002    0.541441    1.268403
      5          6           0       -3.471840    0.037376    0.542099
      6          8           0       -2.659026   -1.123465    0.423679
      7          6           0        2.429265    0.440666   -1.204740
      8          6           0       -0.933821    0.097277   -0.798175
      9          6           0       -2.627305    1.300136    0.606739
     10          6           0       -1.879003   -1.098711   -0.756420
     11          8           0        1.731798   -0.798879   -1.070637
     12          8           0        0.023439    0.062989    0.258113
     13          6           0        1.943470   -0.763811    1.347779
     14          1           0        4.199774   -0.149571   -0.158019
     15          1           0        3.936466    1.592710   -0.207260
     16          1           0       -2.341530    1.530542   -1.518336
     17          1           0        3.454788    0.593201    2.083710
     18          1           0        2.053597    1.387564    1.380478
     19          1           0        1.709050    1.264775   -1.209325
     20          1           0        2.912114    0.400575   -2.178507
     21          1           0       -2.018379    1.275324    1.511210
     22          1           0       -3.279956    2.171205    0.668576
     23          1           0       -2.530661   -1.049700   -1.637713
     24          1           0       -1.337557   -2.041646   -0.793267
     25          1           0        2.628690   -1.613308    1.348243
     26          1           0        1.344234   -0.816625    2.255976
     27          1           0        0.587890   -1.914617    0.112432
     28          1           0       -4.155036    0.084890   -0.315603
     29          1           0       -4.063295   -0.094363    1.445691
     30          1           0       -1.039425    2.227692   -0.558711
     31          1           0       -0.414881    0.096795   -1.759448
 ---------------------------------------------------------------------

 SCF Done:  E(RM062X) =  -617.504246070     A.U. after    1 cycles

 The electronic state is 1-A.
 Alpha  occ. eigenvalues --  -19.63069 -19.63036 -19.62893 -10.63403 -10.58627
 Alpha  occ. eigenvalues --  -10.58079 -10.57907 -10.57835 -10.53252 -10.53041
 Alpha  occ. eigenvalues --  -10.52962 -10.52886 -10.52879  -1.20138  -1.16452
 Alpha  occ. eigenvalues --   -1.13169  -0.91073  -0.89684  -0.86941  -0.84669
 Alpha  occ. eigenvalues --   -0.74733  -0.74031  -0.72790  -0.71188  -0.66084
 Alpha  occ. eigenvalues --   -0.62734  -0.59589  -0.58690  -0.57883  -0.55662
 Alpha  occ. eigenvalues --   -0.54275  -0.52781  -0.52212  -0.50456  -0.49822
 Alpha  occ. eigenvalues --   -0.48257  -0.46770  -0.46085  -0.45720  -0.45348
 Alpha  occ. eigenvalues --   -0.43767  -0.43179  -0.40699  -0.39950  -0.38952
 Alpha  occ. eigenvalues --   -0.38285  -0.37922  -0.36224  -0.35292  -0.33350
 Alpha  occ. eigenvalues --   -0.31887
 Alpha virt. eigenvalues --   -0.00151   0.00835   0.00905   0.00988   0.02223
 Alpha virt. eigenvalues --    0.02499   0.02740   0.03195   0.03525   0.04567
 Alpha virt. eigenvalues --    0.04767   0.04950   0.05470   0.05699   0.07381

 Mulliken charges:
               1
     1  C   -0.382006
     2  C   -0.121387
     3  C   -0.338694
     4  C   -0.305473
     5  C   -0.169911
     6  O   -0.286445
     7  C   -0.125605
     8  C   -0.039332
     9  C   -0.300084
    10  C   -0.486679
    11  O   -0.283921
    12  O   -0.201443
    13  C   -0.334927
    14  H    0.166917
    15  H    0.173806
    16  H    0.213544
    17  H    0.182071
    18  H    0.172749
    19  H    0.126942
    20  H    0.204361
    21  H    0.166990
    22  H    0.178288
    23  H    0.183868
    24  H    0.212638
    25  H    0.192203
    26  H    0.180342
    27  H    0.250974
    28  H    0.145521
    29  H    0.200879
    30  H    0.156196
    31  H    0.267618
 Sum of Mulliken charges =  -0.00000

 Dipole moment (field-independent basis, Debye):
    X=              0.3063    Y=              2.2275    Z=             -0.9944  Tot=              2.4585
 Quadrupole moment (field-independent basis, Debye-Ang):
   XX=            -73.6561   YY=            -80.8849   ZZ=            -79.6627
   XY=             -2.9122   XZ=              4.5660   YZ=             -1.1287

  Exact polarizability: 170.781  -0.052 155.577  -1.537  -0.803 156.977
 Approx polarizability: 145.006  -1.547 142.669  -1.121  -0.248 143.348

 ******    1 imaginary frequencies (negative Signs) ******

                      1                      2                      3
                      A                      A                      A
 Frequencies --    -26.4418                59.6644                86.5777
 Red. masses --      3.8639                 3.7962                 3.5777
 Frc consts  --      0.0016                 0.0080                 0.0158
 IR Inten    --      0.3798                 2.7332                 1.6264

                      4                      5                      6
                      A                      A                      A
 Frequencies --    144.2621               169.8364               240.8133
 Red. masses --      3.5901                 3.1221                 2.9439
 Frc consts  --      0.0440                 0.0531                 0.1006
 IR Inten    --      1.4719                 6.2864                 5.7139

                      7                      8                      9
                      A                      A                      A
 Frequencies --    259.0307               283.2409               349.3796
 Red. masses --      2.5495                 2.3609                 2.2781
 Frc consts  --      0.1008                 0.1116                 0.1638
 IR Inten    --      3.0069                11.1637                 6.3698

                     10                     11                     12
                      A                      A                      A
 Frequencies --    380.4704               398.7963               434.9122
 Red. masses --      2.3184                 2.1997                 3.5629
 Frc consts  --      0.1977                 0.2061                 0.3971
 IR Inten    --      4.2112                 1.9451                 9.9594

                     13                     14                     15
                      A                      A                      A
 Frequencies --    444.9198               501.1727               522.6163
 Red. masses --      2.1438                 4.0764                 2.2663
 Frc consts  --      0.2500                 0.6033                 0.3647
 IR Inten    --      2.1586                13.3709                 3.9787

                     16                     17                     18
                      A                      A                      A
 Frequencies --    532.2577               586.5683               682.3986
 Red. masses --      2.1594                 2.9805                 2.7878
 Frc consts  --      0.3604                 0.6042                 0.7649
 IR Inten    --      2.3234                 6.2386                 5.3291

                     19                     20                     21
                      A                      A                      A
 Frequencies --    752.2976               833.6101               839.2541
 Red. masses --      2.5878                 1.5481                 3.7234
 Frc consts  --      0.8629                 0.6338                 1.5452
 IR Inten    --      8.7598                 5.5911                12.8883

                     22                     23                     24
                      A                      A                      A
 Frequencies --    844.0861               868.2863               875.3304
 Red. masses --      3.3445                 2.1680                 1.6275
 Frc consts  --      1.4040                 0.9630                 0.7347
 IR Inten    --      2.8648                12.9882                15.0856

                     25                     26                     27
                      A                      A                      A
 Frequencies --    895.8440               905.5221               911.5368
 Red. masses --      2.4892                 2.6220                 2.4773
 Frc consts  --      1.1770                 1.2667                 1.2128
 IR Inten    --     30.9297                31.8685                26.4000

                     28                     29                     30
                      A                      A                      A
 Frequencies --    926.3762               949.6781              1004.0842
 Red. masses --      1.7894                 1.6554                 1.7189
 Frc consts  --      0.9048                 0.8796                 1.0211
 IR Inten    --     10.6361                17.4530                20.0843

                     31                     32                     33
                      A                      A                      A
 Frequencies --   1036.0382              1042.9101              1055.5332
 Red. masses --      2.1470                 2.3005                 2.2146
 Frc consts  --      1.3578                 1.4743                 1.4537
 IR Inten    --      5.6898                44.4854               158.8432

                     34                     35                     36
                      A                      A                      A
 Frequencies --   1058.9194              1066.5485              1074.9899
 Red. masses --      2.0442                 1.7036                 2.2771
 Frc consts  --      1.3505                 1.1418                 1.5504
 IR Inten    --    111.6351                31.3708                83.9272

                     37                     38                     39
                      A                      A                      A
 Frequencies --   1103.7992              1148.4683              1153.4375
 Red. masses --      1.5463                 2.3787                 2.8051
 Frc consts  --      1.1100                 1.8485                 2.1988
 IR Inten    --     24.2151                80.3022                93.5820

                     40                     41                     42
                      A                      A                      A
 Frequencies --   1173.0642              1181.6835              1213.3887
 Red. masses --      3.4310                 2.4846                 1.4126
 Frc consts  --      2.7817                 2.0442                 1.2254
 IR Inten    --    174.5046                45.6965                11.8768

                     43                     44                     45
                      A                      A                      A
 Frequencies --   1232.4118              1233.9404              1247.8480
 Red. masses --      1.5421                 1.4750                 1.7743
 Frc consts  --      1.3800                 1.3232                 1.6278
 IR Inten    --     76.4718                33.6209                40.5888

                     46                     47                     48
                      A                      A                      A
 Frequencies --   1290.1380              1299.8304              1321.7369
 Red. masses --      1.2138                 1.1260                 1.1516
 Frc consts  --      1.1903                 1.1209                 1.1853
 IR Inten    --     25.0097                12.6010                 7.7664

                     49                     50                     51
                      A                      A                      A
 Frequencies --   1336.1251              1357.1673              1362.8150
 Red. masses --      1.2273                 1.3622                 1.3277
 Frc consts  --      1.2909                 1.4783                 1.4528
 IR Inten    --     10.3294                24.7594                 1.8824

                     52                     53                     54
                      A                      A                      A
 Frequencies --   1368.6464              1383.9814              1386.9450
 Red. masses --      1.5361                 1.3086                 1.4484
 Frc consts  --      1.6953                 1.4768                 1.6415
 IR Inten    --     10.8006                21.6697                 8.0820

                     55                     56                     57
                      A                      A                      A
 Frequencies --   1392.5497              1394.4293              1404.3859
 Red. masses --      1.5383                 1.7489                 1.3593
 Frc consts  --      1.7575                 2.0035                 1.5796
 IR Inten    --     12.0015                13.1088                 1.5323

                     58                     59                     60
                      A                      A                      A
 Frequencies --   1407.6975              1419.7943              1431.7748
 Red. masses --      1.3688                 1.4633                 1.3539
 Frc consts  --      1.5982                 1.7379                 1.6352
 IR Inten    --      6.0134                 2.7536                 9.6806

                     61                     62                     63
                      A                      A                      A
 Frequencies --   1434.3189              1475.5129              1475.8093
 Red. masses --      1.3472                 1.0867                 1.1034
 Frc consts  --      1.6329                 1.3940                 1.4159
 IR Inten    --     15.5117                 5.4944                 5.5015

                     64                     65                     66
                      A                      A                      A
 Frequencies --   1481.8760              1485.4729              1494.4847
 Red. masses --      1.0853                 1.1157                 1.1109
 Frc consts  --      1.4041                 1.4506                 1.4619
 IR Inten    --      7.8144                14.0519                13.1957

                     67                     68                     69
                      A                      A                      A
 Frequencies --   1500.5192              1508.8196              1513.3976
 Red. masses --      1.0835                 1.0932                 1.1027
 Frc consts  --      1.4373                 1.4662                 1.4880
 IR Inten    --      5.7217                 3.8300                13.6639

                     70                     71                     72
                      A                      A                      A
 Frequencies --   3013.1568              3023.6020              3048.1889
 Red. masses --      1.0707                 1.0711                 1.0694
 Frc consts  --      5.7276                 5.7695                 5.8544
 IR Inten    --     78.6718                60.8188                54.9104

                     73                     74                     75
                      A                      A                      A
 Frequencies --   3062.7118              3068.4597              3073.8779
 Red. masses --      1.0632                 1.0667                 1.0639
 Frc consts  --      5.8762                 5.9176                 5.9227
 IR Inten    --     40.7377                 9.8351                27.8306

                     76                     77                     78
                      A                      A                      A
 Frequencies --   3077.0213              3080.1776              3080.6640
 Red. masses --      1.0657                 1.0773                 1.0624
 Frc consts  --      5.9450                 6.0220                 5.9407
 IR Inten    --      9.7312                86.4445                19.0950

                     79                     80                     81
                      A                      A                      A
 Frequencies --   3089.7239              3113.8208              3117.0322
 Red. masses --      1.0824                 1.0980                 1.1008
 Frc consts  --      6.0880                 6.2726                 6.3017
 IR Inten    --     74.3739                37.0190                32.3773

                     82                     83                     84
                      A                      A                      A
 Frequencies --   3120.0827              3125.9335              3130.8100
 Red. masses --      1.1024                 1.1020                 1.1035
 Frc consts  --      6.3229                 6.3445                 6.3728
 IR Inten    --     59.5750                58.9486                39.9212

                     85                     86                     87
                      A                      A                      A
 Frequencies --   3132.0671              3136.0013              3137.7868
 Red. masses --      1.0964                 1.0972                 1.0920
 Frc consts  --      6.3369                 6.3577                 6.3349
 IR Inten    --     48.9083                42.1981                46.0285

 - Thermochemistry -
 -------------------
 Temperature   298.150 Kelvin.  Pressure   1.00000 Atm.
 Atom     1 has atomic number  6 and mass  12.00000

 Molecular mass:   186.12559 amu.
 Principal axes and moments of inertia in atomic units:
                           1         2         3
     Eigenvalues --  1037.589983976.973924002.21080
           X            0.99996  -0.00211   0.00879
           Y            0.00332   0.99023  -0.13938
           Z           -0.00841   0.13940   0.99020
 This molecule is an asymmetric top.
 Rotational symmetry number  1.
 Warning -- assumption of classical behavior for rotation
           may cause significant error
 Rotational temperatures (Kelvin)      0.08348     0.02178     0.02164
 Rotational constants (GHZ):           1.73936     0.45380     0.45094
    1 imaginary frequencies ignored.
 Zero-point vibrational energy     737289.3 (Joules/Mol)
                                  176.21638 (Kcal/Mol)
 Warning -- explicit consideration of  16 degrees of freedom as
           vibrations may cause significant error
 Vibrational temperatures:     85.84   124.57   207.56   244.36   346.48
          (Kelvin)            372.69   407.52   502.68   547.41   573.78
                              625.74   640.14   721.08   751.93   765.80
                              843.94   981.82  1082.39  1199.38  1207.50
                             1214.45  1249.27  1259.41  1288.92  1302.84
                             1311.50  1332.85  1366.37  1444.65  1490.63
                             1500.52  1518.68  1523.55  1534.53  1546.67
                             1588.12  1652.39  1659.54  1687.78  1700.18
                             1745.80  1773.17  1775.37  1795.37  1856.22
                             1870.17  1901.68  1922.39  1952.66  1960.79
                             1969.18  1991.24  1995.50  2003.57  2006.27
                             2020.60  2025.36  2042.77  2060.00  2063.66
                             2122.93  2123.36  2132.09  2137.26  2150.23
                             2158.91  2170.85  2177.44  4335.26  4350.29
                             4385.66  4406.56  4414.83  4422.62  4427.15
                             4431.69  4432.39  4445.42  4480.09  4484.71
                             4489.10  4497.52  4504.54  4506.35  4512.01
                             4514.58

 Zero-point correction=                           0.280819 (Hartree/Particle)
 Thermal correction to Energy=                    0.291591
 Thermal correction to Enthalpy=                  0.292535
 Thermal correction to Gibbs Free Energy=         0.244216
 Sum of electronic and zero-point Energies=           -617.223427
 Sum of electronic and thermal Energies=              -617.212655
 Sum of electronic and thermal Enthalpies=            -617.211711
 Sum of electronic and thermal Free Energies=         -617.260030

                     E (Thermal)             CV                S
                      KCal/Mol        Cal/Mol-Kelvin    Cal/Mol-Kelvin
 Total                  182.976             44.464            101.696
 Electronic               0.000              0.000              0.000
 Translational            0.889              2.981             41.570
 Rotational               0.889              2.981             31.180
 Vibrational            181.199             38.502             28.947
 Vibration     1          0.597              1.974              4.468
 Vibration     2          0.601              1.959              3.736
 Vibration     3          0.616              1.909              2.747
 Vibration     4          0.625              1.880              2.437
 Vibration     5          0.658              1.778              1.797
 Vibration     6          0.668              1.747              1.668
 Vibration     7          0.682              1.705              1.514
 Vibration     8          0.727              1.577              1.169
 Vibration     9          0.750              1.512              1.037
 Vibration    10          0.765              1.473              0.967
 Vibration    11          0.796              1.394              0.843
 Vibration    12          0.804              1.372              0.811
 Vibration    13          0.857              1.247              0.655
 Vibration    14          0.878              1.200              0.604
 Vibration    15          0.887              1.179              0.582
 Vibration    16          0.944              1.060              0.473

 Optimization completed.
    -- Stationary point found.
 Normal termination of Gaussian 16 at Mon Nov  5 06:41:54 2018.
