 Gaussian 16, Revision A.03,
 Gaussian 16:  ES64L-G16RevA.03 25-Dec-2016

 ----------------------------------------------------------------------
 #M062X/6-311++G(2d,2p) opt=ModRedundant freq=noraman SCRF=(Solvent=Wat
 er)
 ----------------------------------------------------------------------

 -----------------------------
 D_a1-4_2SO_PSI.inp_extract_20
 -----------------------------
 Symbolic Z-matrix:
 Charge =  0 Multiplicity = 1

 SCF Done:  E(RM062X) =  -617.490716552     A.U. after   13 cycles
 SCF Done:  E(RM062X) =  -617.492374544     A.U. after   11 cycles
 SCF Done:  E(RM062X) =  -617.492557887     A.U. after   10 cycles
 SCF Done:  E(RM062X) =  -617.492734348     A.U. after   10 cycles
 SCF Done:  E(RM062X) =  -617.492745260     A.U. after    9 cycles
 SCF Done:  E(RM062X) =  -617.492747393     A.U. after    8 cycles
 SCF Done:  E(RM062X) =  -617.492747930     A.U. after    8 cycles
 SCF Done:  E(RM062X) =  -617.492748103     A.U. after    7 cycles
 Optimization completed.
    -- Stationary point found.
 Normal termination of Gaussian 16 at Sun Nov  4 21:58:54 2018.

 ----------------------------------------------------------------------
 #N Geom=AllCheck Guess=TCheck SCRF=Check GenChk RM062X/6-311++G(2d,2p)
  Freq
 ----------------------------------------------------------------------

 Structure from the checkpoint file:  "D_a1-4_2SO_PSI.inp_extract_20.chk"
 -----------------------------
 D_a1-4_2SO_PSI.inp_extract_20
 -----------------------------
 Charge =  0 Multiplicity = 1

                         Standard orientation:
 ---------------------------------------------------------------------
 Center     Atomic      Atomic             Coordinates (Angstroms)
 Number     Number       Type             X           Y           Z
 ---------------------------------------------------------------------
      1          6           0        0.949763    0.063318   -0.566961
      2          6           0        3.775298   -0.092841    0.239478
      3          8           0       -1.545287    1.218974    0.428042
      4          6           0        1.984835   -0.992500   -0.973326
      5          6           0        1.545371    0.982579    0.499384
      6          8           0       -0.260108   -0.612126   -0.206724
      7          6           0       -2.197370   -1.031691    1.067658
      8          6           0       -3.152453   -1.104169   -0.122709
      9          6           0       -1.061061   -0.056799    0.800432
     10          6           0       -3.603983    0.305832   -0.500021
     11          6           0       -2.389654    1.191724   -0.723014
     12          6           0        3.003844    1.229479    0.118923
     13          8           0        2.919731   -1.220784    0.063489
     14          1           0        0.722355    0.675812   -1.446639
     15          1           0        4.589204   -0.137976   -0.490064
     16          1           0        4.196737   -0.199726    1.237501
     17          1           0        1.482145   -1.935940   -1.173127
     18          1           0        2.509682   -0.678497   -1.881095
     19          1           0        1.527697    0.488741    1.472075
     20          1           0        0.976134    1.905122    0.575586
     21          1           0       -1.775211   -2.007389    1.304858
     22          1           0       -2.732628   -0.674855    1.949513
     23          1           0       -2.643186   -1.562276   -0.972622
     24          1           0       -4.008195   -1.732934    0.121042
     25          1           0       -0.485862    0.122733    1.706614
     26          1           0       -4.215016    0.295970   -1.403129
     27          1           0       -4.208829    0.729023    0.305762
     28          1           0       -2.675040    2.225975   -0.902163
     29          1           0       -1.816750    0.836958   -1.584864
     30          1           0        3.055232    1.613715   -0.901719
     31          1           0        3.459300    1.977429    0.764946
 ---------------------------------------------------------------------

 SCF Done:  E(RM062X) =  -617.492748103     A.U. after    1 cycles

 The electronic state is 1-A.
 Alpha  occ. eigenvalues --  -19.63016 -19.62868 -19.62754 -10.63289 -10.58946
 Alpha  occ. eigenvalues --  -10.58087 -10.58033 -10.57691 -10.53480 -10.53367
 Alpha  occ. eigenvalues --  -10.52994 -10.52916 -10.52805  -1.19806  -1.16452
 Alpha  occ. eigenvalues --   -1.12996  -0.90940  -0.89590  -0.87280  -0.84286
 Alpha  occ. eigenvalues --   -0.75398  -0.74309  -0.72664  -0.70775  -0.64882
 Alpha  occ. eigenvalues --   -0.62363  -0.60293  -0.58754  -0.58404  -0.55386
 Alpha  occ. eigenvalues --   -0.54239  -0.53951  -0.52493  -0.50026  -0.49300
 Alpha  occ. eigenvalues --   -0.48521  -0.46057  -0.45735  -0.45170  -0.44734
 Alpha  occ. eigenvalues --   -0.43850  -0.42466  -0.41924  -0.40656  -0.39229
 Alpha  occ. eigenvalues --   -0.38454  -0.37593  -0.36141  -0.34331  -0.33436
 Alpha  occ. eigenvalues --   -0.31994
 Alpha virt. eigenvalues --   -0.00135   0.00780   0.00809   0.01138   0.02193
 Alpha virt. eigenvalues --    0.02418   0.02630   0.03439   0.03701   0.04385
 Alpha virt. eigenvalues --    0.04535   0.04681   0.05688   0.05887   0.06969

 Mulliken charges:
               1
     1  C   -0.032711
     2  C   -0.240071
     3  O   -0.272663
     4  C   -0.368290
     5  C   -0.086208
     6  O   -0.290973
     7  C   -0.577436
     8  C   -0.276214
     9  C    0.017650
    10  C   -0.424731
    11  C   -0.071842
    12  C   -0.431473
    13  O   -0.305162
    14  H    0.215016
    15  H    0.175395
    16  H    0.179563
    17  H    0.189684
    18  H    0.177743
    19  H    0.202594
    20  H    0.202528
    21  H    0.185898
    22  H    0.189073
    23  H    0.175087
    24  H    0.183935
    25  H    0.270344
    26  H    0.172278
    27  H    0.163078
    28  H    0.200821
    29  H    0.131731
    30  H    0.184502
    31  H    0.160855
 Sum of Mulliken charges =  -0.00000

 Dipole moment (field-independent basis, Debye):
    X=             -0.2091    Y=              1.6037    Z=             -1.0367  Tot=              1.9210
 Quadrupole moment (field-independent basis, Debye-Ang):
   XX=            -72.7456   YY=            -84.8874   ZZ=            -76.6390
   XY=              7.8478   XZ=             -0.0472   YZ=             -1.2538

  Exact polarizability: 175.151   2.056 155.009   1.291  -1.168 153.054
 Approx polarizability: 145.688   0.861 141.650   0.692  -0.466 143.275

 ******    1 imaginary frequencies (negative Signs) ******

                      1                      2                      3
                      A                      A                      A
 Frequencies --    -30.2485                56.5503                89.1331
 Red. masses --      3.6386                 3.7693                 3.5666
 Frc consts  --      0.0020                 0.0071                 0.0167
 IR Inten    --      0.9674                 2.6478                 1.6544

                      4                      5                      6
                      A                      A                      A
 Frequencies --    105.2630               190.7376               210.3898
 Red. masses --      3.1167                 3.7783                 2.4089
 Frc consts  --      0.0203                 0.0810                 0.0628
 IR Inten    --      5.2103                 4.6671                 6.4898

                      7                      8                      9
                      A                      A                      A
 Frequencies --    229.8497               269.9717               312.8374
 Red. masses --      2.8439                 2.2183                 2.3105
 Frc consts  --      0.0885                 0.0953                 0.1332
 IR Inten    --      4.8269                 1.1238                 0.6110

                     10                     11                     12
                      A                      A                      A
 Frequencies --    368.3347               379.4100               437.5343
 Red. masses --      2.0043                 2.6365                 2.3659
 Frc consts  --      0.1602                 0.2236                 0.2669
 IR Inten    --      3.9373                22.0693                 2.2188

                     13                     14                     15
                      A                      A                      A
 Frequencies --    444.8731               461.5715               535.9471
 Red. masses --      3.5333                 4.0592                 2.2749
 Frc consts  --      0.4120                 0.5095                 0.3850
 IR Inten    --      3.6709                 3.5151                 4.6856

                     16                     17                     18
                      A                      A                      A
 Frequencies --    586.7967               599.1796               665.4202
 Red. masses --      2.8728                 3.7416                 2.2654
 Frc consts  --      0.5828                 0.7914                 0.5910
 IR Inten    --      3.6164                 9.6116                12.7643

                     19                     20                     21
                      A                      A                      A
 Frequencies --    705.8068               807.0804               833.4215
 Red. masses --      3.1234                 2.2503                 1.5339
 Frc consts  --      0.9167                 0.8636                 0.6277
 IR Inten    --      3.2239                 4.9326                 3.5498

                     22                     23                     24
                      A                      A                      A
 Frequencies --    840.5834               863.4086               892.7835
 Red. masses --      3.4843                 1.7817                 2.4936
 Frc consts  --      1.4505                 0.7826                 1.1710
 IR Inten    --      9.8081                 4.6954                22.8496

                     25                     26                     27
                      A                      A                      A
 Frequencies --    911.2991               918.4815               923.8024
 Red. masses --      2.4197                 2.7056                 1.9998
 Frc consts  --      1.1839                 1.3448                 1.0055
 IR Inten    --     21.1872                11.9021                57.0800

                     28                     29                     30
                      A                      A                      A
 Frequencies --    930.0608               965.8889               979.9712
 Red. masses --      1.9434                 1.5946                 1.8911
 Frc consts  --      0.9904                 0.8765                 1.0700
 IR Inten    --     16.4938                 6.0273                33.0626

                     31                     32                     33
                      A                      A                      A
 Frequencies --   1034.5765              1048.1374              1061.4334
 Red. masses --      2.0706                 2.4702                 1.6422
 Frc consts  --      1.3058                 1.5989                 1.0901
 IR Inten    --     22.0085               156.7321                81.4126

                     34                     35                     36
                      A                      A                      A
 Frequencies --   1064.4818              1072.5767              1079.9913
 Red. masses --      1.8785                 2.1032                 2.3413
 Frc consts  --      1.2541                 1.4256                 1.6090
 IR Inten    --     18.6680                10.7483               181.3030

                     37                     38                     39
                      A                      A                      A
 Frequencies --   1133.5911              1146.0638              1157.4366
 Red. masses --      2.5625                 4.4669                 2.3973
 Frc consts  --      1.9401                 3.4568                 1.8922
 IR Inten    --    106.3899               104.5124                14.7518

                     40                     41                     42
                      A                      A                      A
 Frequencies --   1170.7911              1188.2086              1211.2663
 Red. masses --      2.2660                 4.0713                 1.3953
 Frc consts  --      1.8301                 3.3866                 1.2061
 IR Inten    --     24.5207               219.2393                24.3310

                     43                     44                     45
                      A                      A                      A
 Frequencies --   1220.4383              1232.7541              1252.4789
 Red. masses --      1.3935                 1.6137                 1.4593
 Frc consts  --      1.2229                 1.4449                 1.3488
 IR Inten    --      4.3445                43.5173                34.4071

                     46                     47                     48
                      A                      A                      A
 Frequencies --   1288.1768              1289.8770              1319.6358
 Red. masses --      1.2173                 1.1931                 1.1507
 Frc consts  --      1.1901                 1.1695                 1.1807
 IR Inten    --     24.9246                 8.2100                 7.7456

                     49                     50                     51
                      A                      A                      A
 Frequencies --   1330.7859              1346.8771              1360.4592
 Red. masses --      1.1999                 1.3259                 1.3545
 Frc consts  --      1.2520                 1.4172                 1.4770
 IR Inten    --     28.9007                10.6672                 5.8101

                     52                     53                     54
                      A                      A                      A
 Frequencies --   1374.2013              1375.7618              1386.6979
 Red. masses --      1.3111                 1.5588                 1.4822
 Frc consts  --      1.4588                 1.7383                 1.6792
 IR Inten    --      2.7758                 1.5219                 0.5736

                     55                     56                     57
                      A                      A                      A
 Frequencies --   1391.0662              1394.0882              1399.2007
 Red. masses --      1.2730                 1.6399                 1.2766
 Frc consts  --      1.4513                 1.8778                 1.4725
 IR Inten    --      2.7059                15.2522                 9.9003

                     58                     59                     60
                      A                      A                      A
 Frequencies --   1413.3483              1425.1722              1426.4270
 Red. masses --      1.3241                 1.3416                 1.3630
 Frc consts  --      1.5583                 1.6055                 1.6339
 IR Inten    --     16.0193                13.3780                 3.7936

                     61                     62                     63
                      A                      A                      A
 Frequencies --   1431.2098              1474.5520              1482.6705
 Red. masses --      1.3494                 1.1026                 1.0879
 Frc consts  --      1.6286                 1.4125                 1.4090
 IR Inten    --     18.5972                 5.2575                 7.2072

                     64                     65                     66
                      A                      A                      A
 Frequencies --   1495.0036              1495.8668              1501.0632
 Red. masses --      1.1012                 1.0932                 1.0952
 Frc consts  --      1.4501                 1.4412                 1.4539
 IR Inten    --      6.5711                10.4743                 9.5459

                     67                     68                     69
                      A                      A                      A
 Frequencies --   1504.5628              1507.3122              1517.7505
 Red. masses --      1.0777                 1.0944                 1.0976
 Frc consts  --      1.4373                 1.4650                 1.4897
 IR Inten    --      6.5188                 3.9036                 3.8309

                     70                     71                     72
                      A                      A                      A
 Frequencies --   3022.9952              3042.8929              3046.7081
 Red. masses --      1.0813                 1.0683                 1.0716
 Frc consts  --      5.8220                 5.8282                 5.8605
 IR Inten    --     34.6638               100.3351               104.1894

                     73                     74                     75
                      A                      A                      A
 Frequencies --   3051.5101              3062.2460              3073.2027
 Red. masses --      1.0691                 1.0630                 1.0628
 Frc consts  --      5.8653                 5.8731                 5.9138
 IR Inten    --     33.0433                42.6012                25.5036

                     76                     77                     78
                      A                      A                      A
 Frequencies --   3073.9753              3078.4401              3086.0334
 Red. masses --      1.0683                 1.0625                 1.0647
 Frc consts  --      5.9475                 5.9326                 5.9741
 IR Inten    --     26.3573                34.1771                36.5598

                     79                     80                     81
                      A                      A                      A
 Frequencies --   3112.9486              3118.7692              3118.9312
 Red. masses --      1.0976                 1.1004                 1.0979
 Frc consts  --      6.2665                 6.3063                 6.2923
 IR Inten    --     50.2825                17.7017                53.7189

                     82                     83                     84
                      A                      A                      A
 Frequencies --   3124.7061              3130.4079              3134.5735
 Red. masses --      1.0843                 1.1033                 1.0981
 Frc consts  --      6.2379                 6.3699                 6.3569
 IR Inten    --     50.9418                40.7849                45.9014

                     85                     86                     87
                      A                      A                      A
 Frequencies --   3136.5666              3144.8683              3155.4191
 Red. masses --      1.0993                 1.0962                 1.1000
 Frc consts  --      6.3723                 6.3880                 6.4527
 IR Inten    --     74.0660                20.1088                20.1417

 - Thermochemistry -
 -------------------
 Temperature   298.150 Kelvin.  Pressure   1.00000 Atm.
 Atom     1 has atomic number  6 and mass  12.00000

 Molecular mass:   186.12559 amu.
 Principal axes and moments of inertia in atomic units:
                           1         2         3
     Eigenvalues --   905.198034254.804754580.14361
           X            0.99990   0.01421   0.00139
           Y           -0.01418   0.99973  -0.01816
           Z           -0.00165   0.01814   0.99983
 This molecule is an asymmetric top.
 Rotational symmetry number  1.
 Warning -- assumption of classical behavior for rotation
           may cause significant error
 Rotational temperatures (Kelvin)      0.09569     0.02036     0.01891
 Rotational constants (GHZ):           1.99375     0.42417     0.39404
    1 imaginary frequencies ignored.
 Zero-point vibrational energy     737124.4 (Joules/Mol)
                                  176.17696 (Kcal/Mol)
 Warning -- explicit consideration of  16 degrees of freedom as
           vibrations may cause significant error
 Vibrational temperatures:     81.36   128.24   151.45   274.43   302.70
          (Kelvin)            330.70   388.43   450.10   529.95   545.89
                              629.51   640.07   664.10   771.11   844.27
                              862.09   957.39  1015.50  1161.21  1199.11
                             1209.41  1242.25  1284.52  1311.16  1321.49
                             1329.15  1338.15  1389.70  1409.96  1488.52
                             1508.04  1527.17  1531.55  1543.20  1553.87
                             1630.98  1648.93  1665.29  1684.51  1709.57
                             1742.74  1755.94  1773.66  1802.04  1853.40
                             1855.85  1898.66  1914.70  1937.86  1957.40
                             1977.17  1979.41  1995.15  2001.43  2005.78
                             2013.14  2033.49  2050.50  2052.31  2059.19
                             2121.55  2133.23  2150.98  2152.22  2159.70
                             2164.73  2168.69  2183.70  4349.42  4378.04
                             4383.53  4390.44  4405.89  4421.65  4422.76
                             4429.19  4440.11  4478.84  4487.21  4487.45
                             4495.76  4503.96  4509.95  4512.82  4524.76
                             4539.94

 Zero-point correction=                           0.280756 (Hartree/Particle)
 Thermal correction to Energy=                    0.291743
 Thermal correction to Enthalpy=                  0.292687
 Thermal correction to Gibbs Free Energy=         0.243731
 Sum of electronic and zero-point Energies=           -617.211992
 Sum of electronic and thermal Energies=              -617.201005
 Sum of electronic and thermal Enthalpies=            -617.200061
 Sum of electronic and thermal Free Energies=         -617.249017

                     E (Thermal)             CV                S
                      KCal/Mol        Cal/Mol-Kelvin    Cal/Mol-Kelvin
 Total                  183.071             44.704            103.036
 Electronic               0.000              0.000              0.000
 Translational            0.889              2.981             41.570
 Rotational               0.889              2.981             31.245
 Vibrational            181.294             38.742             30.220
 Vibration     1          0.596              1.975              4.574
 Vibration     2          0.602              1.957              3.679
 Vibration     3          0.605              1.945              3.354
 Vibration     4          0.634              1.853              2.221
 Vibration     5          0.643              1.825              2.040
 Vibration     6          0.652              1.795              1.880
 Vibration     7          0.674              1.728              1.596
 Vibration     8          0.701              1.649              1.347
 Vibration     9          0.741              1.537              1.087
 Vibration    10          0.749              1.514              1.042
 Vibration    11          0.798              1.388              0.834
 Vibration    12          0.804              1.372              0.811
 Vibration    13          0.819              1.335              0.762
 Vibration    14          0.891              1.171              0.574
 Vibration    15          0.944              1.060              0.473
 Vibration    16          0.957              1.034              0.451

 Optimization completed.
    -- Stationary point found.
 Normal termination of Gaussian 16 at Sun Nov  4 22:59:32 2018.
