 Gaussian 16, Revision A.03,
 Gaussian 16:  ES64L-G16RevA.03 25-Dec-2016

 ----------------------------------------------------------------------
 #M062X/6-311++G(2d,2p) opt=ModRedundant freq=noraman SCRF=(Solvent=Wat
 er)
 ----------------------------------------------------------------------

 ----------------------------
 D_a1-4_2SO_PSI.inp_extract_4
 ----------------------------
 Symbolic Z-matrix:
 Charge =  0 Multiplicity = 1

 SCF Done:  E(RM062X) =  -617.494670931     A.U. after   12 cycles
 SCF Done:  E(RM062X) =  -617.496290366     A.U. after   11 cycles
 SCF Done:  E(RM062X) =  -617.496399149     A.U. after   10 cycles
 SCF Done:  E(RM062X) =  -617.496551415     A.U. after   10 cycles
 SCF Done:  E(RM062X) =  -617.496556936     A.U. after    9 cycles
 SCF Done:  E(RM062X) =  -617.496557738     A.U. after    7 cycles
 SCF Done:  E(RM062X) =  -617.496557873     A.U. after    7 cycles
 Optimization completed.
    -- Stationary point found.
 Normal termination of Gaussian 16 at Sun Nov  4 21:54:30 2018.

 ----------------------------------------------------------------------
 #N Geom=AllCheck Guess=TCheck SCRF=Check GenChk RM062X/6-311++G(2d,2p)
  Freq
 ----------------------------------------------------------------------

 Structure from the checkpoint file:  "D_a1-4_2SO_PSI.inp_extract_4.chk"
 ----------------------------
 D_a1-4_2SO_PSI.inp_extract_4
 ----------------------------
 Charge =  0 Multiplicity = 1

                         Standard orientation:
 ---------------------------------------------------------------------
 Center     Atomic      Atomic             Coordinates (Angstroms)
 Number     Number       Type             X           Y           Z
 ---------------------------------------------------------------------
      1          6           0       -1.058079   -0.502301   -0.530268
      2          6           0       -3.519761    0.708185    0.574082
      3          8           0        1.639401    0.491274   -1.223336
      4          6           0       -1.471669    0.973052   -0.546640
      5          6           0       -2.121931   -1.319702    0.201336
      6          8           0        0.183736   -0.720443    0.135553
      7          6           0        2.458489   -1.394794    0.077478
      8          6           0        2.981334   -0.441487    1.149435
      9          6           0        1.307348   -0.779881   -0.702482
     10          6           0        3.313335    0.902336    0.504852
     11          6           0        2.093183    1.419555   -0.236437
     12          6           0       -3.494889   -0.699150   -0.037074
     13          8           0       -2.220831    1.298594    0.609777
     14          1           0       -0.964260   -0.844590   -1.565682
     15          1           0       -4.198903    1.361432    0.018328
     16          1           0       -3.849987    0.667171    1.610841
     17          1           0       -0.594804    1.612970   -0.560251
     18          1           0       -2.061723    1.183063   -1.445357
     19          1           0       -1.888887   -1.288979    1.267333
     20          1           0       -2.083443   -2.359822   -0.116476
     21          1           0        2.124324   -2.339529    0.503991
     22          1           0        3.255025   -1.612929   -0.636426
     23          1           0        2.219288   -0.298033    1.918387
     24          1           0        3.857649   -0.868603    1.635686
     25          1           0        1.071173   -1.381054   -1.583524
     26          1           0        3.616508    1.636232    1.252053
     27          1           0        4.139570    0.783190   -0.200098
     28          1           0        2.306740    2.339063   -0.776987
     29          1           0        1.288032    1.617133    0.477492
     30          1           0       -3.694510   -0.655289   -1.109199
     31          1           0       -4.284403   -1.301697    0.408241
 ---------------------------------------------------------------------

 SCF Done:  E(RM062X) =  -617.496557873     A.U. after    1 cycles

 The electronic state is 1-A.
 Alpha  occ. eigenvalues --  -19.63229 -19.63048 -19.62723 -10.63523 -10.58874
 Alpha  occ. eigenvalues --  -10.58018 -10.57866 -10.57795 -10.53340 -10.53220
 Alpha  occ. eigenvalues --  -10.53098 -10.53038 -10.52916  -1.20041  -1.16255
 Alpha  occ. eigenvalues --   -1.13396  -0.90988  -0.89786  -0.87012  -0.84295
 Alpha  occ. eigenvalues --   -0.75021  -0.74236  -0.72924  -0.71333  -0.64585
 Alpha  occ. eigenvalues --   -0.62908  -0.59906  -0.59756  -0.57175  -0.56794
 Alpha  occ. eigenvalues --   -0.54748  -0.52828  -0.52408  -0.50334  -0.49547
 Alpha  occ. eigenvalues --   -0.47833  -0.46539  -0.45787  -0.45225  -0.44414
 Alpha  occ. eigenvalues --   -0.44118  -0.42470  -0.42013  -0.40477  -0.39282
 Alpha  occ. eigenvalues --   -0.38506  -0.37230  -0.36224  -0.35850  -0.33451
 Alpha  occ. eigenvalues --   -0.31672
 Alpha virt. eigenvalues --   -0.00119   0.00739   0.00858   0.01125   0.02184
 Alpha virt. eigenvalues --    0.02464   0.02554   0.03404   0.03629   0.04503
 Alpha virt. eigenvalues --    0.04563   0.04728   0.05473   0.05655   0.07148

 Mulliken charges:
               1
     1  C    0.096043
     2  C   -0.211562
     3  O   -0.280867
     4  C   -0.519596
     5  C   -0.211271
     6  O   -0.253439
     7  C   -0.396792
     8  C   -0.274782
     9  C   -0.099373
    10  C   -0.410629
    11  C   -0.121406
    12  C   -0.355407
    13  O   -0.298344
    14  H    0.205344
    15  H    0.172111
    16  H    0.168484
    17  H    0.237850
    18  H    0.176670
    19  H    0.186560
    20  H    0.176941
    21  H    0.183481
    22  H    0.189721
    23  H    0.171029
    24  H    0.185929
    25  H    0.229415
    26  H    0.172303
    27  H    0.166102
    28  H    0.213089
    29  H    0.148736
    30  H    0.179764
    31  H    0.173898
 Sum of Mulliken charges =  -0.00000

 Dipole moment (field-independent basis, Debye):
    X=             -0.4702    Y=             -1.6266    Z=             -0.8937  Tot=              1.9146
 Quadrupole moment (field-independent basis, Debye-Ang):
   XX=            -68.1433   YY=            -79.6373   ZZ=            -82.5302
   XY=              3.4080   XZ=              4.6689   YZ=              0.4816

  Exact polarizability: 174.414   0.974 158.803  -0.036   0.265 150.533
 Approx polarizability: 146.449   1.175 141.213  -0.934   0.835 142.854

                      1                      2                      3
                      A                      A                      A
 Frequencies --     36.9903                55.0243                87.2916
 Red. masses --      3.5342                 3.1993                 3.9329
 Frc consts  --      0.0028                 0.0057                 0.0177
 IR Inten    --      1.7449                 0.9914                 3.9241

                      4                      5                      6
                      A                      A                      A
 Frequencies --    130.4568               185.7500               215.0195
 Red. masses --      3.1701                 2.8190                 2.1195
 Frc consts  --      0.0318                 0.0573                 0.0577
 IR Inten    --      1.3777                 4.6518                 3.2520

                      7                      8                      9
                      A                      A                      A
 Frequencies --    261.5550               269.8444               289.2984
 Red. masses --      3.9199                 3.1111                 2.3826
 Frc consts  --      0.1580                 0.1335                 0.1175
 IR Inten    --      1.9985                 5.1476                 6.8203

                     10                     11                     12
                      A                      A                      A
 Frequencies --    362.2676               379.4363               436.1915
 Red. masses --      1.8813                 2.7090                 2.4032
 Frc consts  --      0.1455                 0.2298                 0.2694
 IR Inten    --      5.9444                12.7388                 1.9757

                     13                     14                     15
                      A                      A                      A
 Frequencies --    447.2763               459.3113               537.1905
 Red. masses --      3.3769                 3.2284                 2.2501
 Frc consts  --      0.3980                 0.4013                 0.3826
 IR Inten    --      7.9012                 0.6179                 2.5058

                     16                     17                     18
                      A                      A                      A
 Frequencies --    574.5017               599.7091               663.5120
 Red. masses --      2.9697                 3.4273                 2.3190
 Frc consts  --      0.5775                 0.7262                 0.6015
 IR Inten    --      8.9100                 8.1281                17.0901

                     19                     20                     21
                      A                      A                      A
 Frequencies --    710.3165               824.9090               834.7064
 Red. masses --      3.0753                 2.1530                 1.5996
 Frc consts  --      0.9142                 0.8632                 0.6567
 IR Inten    --      2.9709                12.3538                 1.4085

                     22                     23                     24
                      A                      A                      A
 Frequencies --    842.5130               864.2799               894.9556
 Red. masses --      2.8040                 2.0120                 2.3703
 Frc consts  --      1.1727                 0.8855                 1.1186
 IR Inten    --      7.5502                 4.2186                23.5828

                     25                     26                     27
                      A                      A                      A
 Frequencies --    905.2976               915.2667               918.0816
 Red. masses --      2.3554                 2.4403                 2.3636
 Frc consts  --      1.1374                 1.2045                 1.1738
 IR Inten    --     18.3892                26.7229                39.3621

                     28                     29                     30
                      A                      A                      A
 Frequencies --    938.5569               951.1114               993.5745
 Red. masses --      1.6995                 1.7508                 1.8363
 Frc consts  --      0.8820                 0.9332                 1.0680
 IR Inten    --     12.2772                 6.0495                17.2542

                     31                     32                     33
                      A                      A                      A
 Frequencies --   1030.1899              1052.7903              1061.7272
 Red. masses --      2.1969                 2.5297                 1.7008
 Frc consts  --      1.3737                 1.6520                 1.1296
 IR Inten    --     52.5238               113.4499               119.0508

                     34                     35                     36
                      A                      A                      A
 Frequencies --   1065.8803              1074.1740              1085.2504
 Red. masses --      1.7090                 2.0688                 2.2642
 Frc consts  --      1.1439                 1.4064                 1.5712
 IR Inten    --     32.0795                27.6244               164.1167

                     37                     38                     39
                      A                      A                      A
 Frequencies --   1130.7040              1145.8556              1149.3145
 Red. masses --      2.1888                 4.4334                 2.2036
 Frc consts  --      1.6487                 3.4296                 1.7150
 IR Inten    --    142.5799                97.3881                37.5219

                     40                     41                     42
                      A                      A                      A
 Frequencies --   1180.4425              1183.1472              1213.3942
 Red. masses --      4.3372                 2.7014                 1.4143
 Frc consts  --      3.5608                 2.2280                 1.2268
 IR Inten    --    165.0088                13.5737                11.8561

                     43                     44                     45
                      A                      A                      A
 Frequencies --   1220.8549              1235.8225              1253.4590
 Red. masses --      1.4357                 1.6058                 1.4668
 Frc consts  --      1.2608                 1.4450                 1.3578
 IR Inten    --      9.5448                54.3975                56.8274

                     46                     47                     48
                      A                      A                      A
 Frequencies --   1286.0013              1291.7082              1324.2800
 Red. masses --      1.2190                 1.2256                 1.1632
 Frc consts  --      1.1878                 1.2049                 1.2019
 IR Inten    --     28.3110                16.3613                13.3837

                     49                     50                     51
                      A                      A                      A
 Frequencies --   1326.5983              1338.7126              1360.9993
 Red. masses --      1.1841                 1.3058                 1.3546
 Frc consts  --      1.2278                 1.3788                 1.4784
 IR Inten    --     11.8036                 6.6772                15.0820

                     52                     53                     54
                      A                      A                      A
 Frequencies --   1362.5622              1374.9505              1384.2403
 Red. masses --      1.5535                 1.2963                 1.3268
 Frc consts  --      1.6993                 1.4439                 1.4979
 IR Inten    --      1.5010                18.7649                17.0475

                     55                     56                     57
                      A                      A                      A
 Frequencies --   1387.5750              1395.9458              1402.2183
 Red. masses --      1.4117                 1.7560                 1.2841
 Frc consts  --      1.6015                 2.0161                 1.4875
 IR Inten    --      6.7951                23.8616                12.3385

                     58                     59                     60
                      A                      A                      A
 Frequencies --   1405.8303              1423.6849              1432.9586
 Red. masses --      1.3548                 1.3481                 1.3877
 Frc consts  --      1.5776                 1.6099                 1.6788
 IR Inten    --      9.6322                 9.7421                14.2549

                     61                     62                     63
                      A                      A                      A
 Frequencies --   1447.4540              1476.2626              1483.9387
 Red. masses --      1.3101                 1.1060                 1.0869
 Frc consts  --      1.6171                 1.4202                 1.4101
 IR Inten    --      2.3565                 4.9614                 8.3917

                     64                     65                     66
                      A                      A                      A
 Frequencies --   1489.2015              1495.8312              1498.0129
 Red. masses --      1.1016                 1.1063                 1.0936
 Frc consts  --      1.4394                 1.4585                 1.4459
 IR Inten    --      4.7301                10.9287                11.7121

                     67                     68                     69
                      A                      A                      A
 Frequencies --   1505.6586              1509.2501              1518.0897
 Red. masses --      1.0772                 1.0946                 1.0984
 Frc consts  --      1.4388                 1.4690                 1.4914
 IR Inten    --      7.7944                 2.8853                 6.5616

                     70                     71                     72
                      A                      A                      A
 Frequencies --   3032.4443              3041.2028              3050.5537
 Red. masses --      1.0743                 1.0680                 1.0802
 Frc consts  --      5.8206                 5.8201                 5.9228
 IR Inten    --     32.8576                86.5949                45.8452

                     73                     74                     75
                      A                      A                      A
 Frequencies --   3051.4734              3063.7589              3068.0657
 Red. masses --      1.0711                 1.0635                 1.0755
 Frc consts  --      5.8764                 5.8819                 5.9647
 IR Inten    --     64.4982                37.6078                49.6033

                     76                     77                     78
                      A                      A                      A
 Frequencies --   3070.6723              3074.6844              3081.5428
 Red. masses --      1.0666                 1.0685                 1.0686
 Frc consts  --      5.9254                 5.9515                 5.9786
 IR Inten    --     18.3718                15.4197                75.8366

                     79                     80                     81
                      A                      A                      A
 Frequencies --   3081.9823              3113.3076              3115.7511
 Red. masses --      1.0613                 1.0982                 1.0957
 Frc consts  --      5.9395                 6.2716                 6.2673
 IR Inten    --     56.8766                35.7793                17.5298

                     82                     83                     84
                      A                      A                      A
 Frequencies --   3118.5837              3131.2260              3134.0449
 Red. masses --      1.1024                 1.1025                 1.0985
 Frc consts  --      6.3169                 6.3686                 6.3570
 IR Inten    --     67.0073                40.2557                99.1912

                     85                     86                     87
                      A                      A                      A
 Frequencies --   3134.3612              3135.0980              3174.6059
 Red. masses --      1.0986                 1.1031                 1.0919
 Frc consts  --      6.3591                 6.3880                 6.4835
 IR Inten    --      3.3342                45.3133                13.3468

 - Thermochemistry -
 -------------------
 Temperature   298.150 Kelvin.  Pressure   1.00000 Atm.
 Atom     1 has atomic number  6 and mass  12.00000

 Molecular mass:   186.12559 amu.
 Principal axes and moments of inertia in atomic units:
                           1         2         3
     Eigenvalues --  1006.149844061.253854426.87271
           X            0.99994   0.00630   0.00942
           Y           -0.00626   0.99997  -0.00412
           Z           -0.00945   0.00406   0.99995
 This molecule is an asymmetric top.
 Rotational symmetry number  1.
 Warning -- assumption of classical behavior for rotation
           may cause significant error
 Rotational temperatures (Kelvin)      0.08608     0.02133     0.01957
 Rotational constants (GHZ):           1.79371     0.44438     0.40768
 Zero-point vibrational energy     737273.6 (Joules/Mol)
                                  176.21263 (Kcal/Mol)
 Warning -- explicit consideration of  17 degrees of freedom as
           vibrations may cause significant error
 Vibrational temperatures:     53.22    79.17   125.59   187.70   267.25
          (Kelvin)            309.37   376.32   388.25   416.24   521.22
                              545.92   627.58   643.53   660.85   772.90
                              826.58   862.85   954.65  1021.99  1186.86
                             1200.96  1212.19  1243.51  1287.64  1302.52
                             1316.86  1320.91  1350.37  1368.44  1429.53
                             1482.21  1514.73  1527.59  1533.56  1545.50
                             1561.43  1626.83  1648.63  1653.61  1698.39
                             1702.28  1745.80  1756.54  1778.07  1803.45
                             1850.27  1858.48  1905.34  1908.68  1926.11
                             1958.17  1960.42  1978.25  1991.61  1996.41
                             2008.45  2017.48  2022.68  2048.37  2061.71
                             2082.56  2124.01  2135.06  2142.63  2152.17
                             2155.31  2166.31  2171.47  2184.19  4363.01
                             4375.61  4389.07  4390.39  4408.07  4414.26
                             4418.01  4423.79  4433.65  4434.29  4479.36
                             4482.87  4486.95  4505.14  4509.19  4509.65
                             4510.71  4567.55

 Zero-point correction=                           0.280813 (Hartree/Particle)
 Thermal correction to Energy=                    0.292615
 Thermal correction to Enthalpy=                  0.293560
 Thermal correction to Gibbs Free Energy=         0.242198
 Sum of electronic and zero-point Energies=           -617.215745
 Sum of electronic and thermal Energies=              -617.203943
 Sum of electronic and thermal Enthalpies=            -617.202998
 Sum of electronic and thermal Free Energies=         -617.254360

                     E (Thermal)             CV                S
                      KCal/Mol        Cal/Mol-Kelvin    Cal/Mol-Kelvin
 Total                  183.619             46.663            108.099
 Electronic               0.000              0.000              0.000
 Translational            0.889              2.981             41.570
 Rotational               0.889              2.981             31.270
 Vibrational            181.841             40.702             35.258
 Vibration     1          0.594              1.982              5.414
 Vibration     2          0.596              1.976              4.628
 Vibration     3          0.601              1.958              3.720
 Vibration     4          0.612              1.923              2.939
 Vibration     5          0.632              1.859              2.270
 Vibration     6          0.645              1.818              2.001
 Vibration     7          0.669              1.743              1.651
 Vibration     8          0.674              1.729              1.597
 Vibration     9          0.686              1.694              1.478
 Vibration    10          0.736              1.550              1.112
 Vibration    11          0.749              1.514              1.041
 Vibration    12          0.797              1.391              0.839
 Vibration    13          0.806              1.367              0.804
 Vibration    14          0.817              1.340              0.768
 Vibration    15          0.892              1.168              0.571
 Vibration    16          0.931              1.086              0.496
 Vibration    17          0.958              1.032              0.450

                           ! Non-Optimized Parameters !
 Normal termination of Gaussian 16 at Sun Nov  4 22:48:28 2018.
