 Gaussian 16, Revision A.03,
 Gaussian 16:  ES64L-G16RevA.03 25-Dec-2016

 ----------------------------------------------------------------------
 #M062X/6-311++G(2d,2p) opt=ModRedundant freq=noraman SCRF=(Solvent=Wat
 er)
 ----------------------------------------------------------------------

 ----------------------------
 D_a1-4_2SO_PSI.inp_extract_5
 ----------------------------
 Symbolic Z-matrix:
 Charge =  0 Multiplicity = 1

 SCF Done:  E(RM062X) =  -617.494482708     A.U. after   12 cycles
 SCF Done:  E(RM062X) =  -617.496251771     A.U. after   11 cycles
 SCF Done:  E(RM062X) =  -617.496444229     A.U. after   10 cycles
 SCF Done:  E(RM062X) =  -617.496522371     A.U. after   10 cycles
 SCF Done:  E(RM062X) =  -617.496527527     A.U. after    8 cycles
 SCF Done:  E(RM062X) =  -617.496528959     A.U. after    8 cycles
 SCF Done:  E(RM062X) =  -617.496529199     A.U. after    7 cycles
 Optimization completed.
    -- Stationary point found.
 Normal termination of Gaussian 16 at Sun Nov  4 21:54:46 2018.

 ----------------------------------------------------------------------
 #N Geom=AllCheck Guess=TCheck SCRF=Check GenChk RM062X/6-311++G(2d,2p)
  Freq
 ----------------------------------------------------------------------

 Structure from the checkpoint file:  "D_a1-4_2SO_PSI.inp_extract_5.chk"
 ----------------------------
 D_a1-4_2SO_PSI.inp_extract_5
 ----------------------------
 Charge =  0 Multiplicity = 1

                         Standard orientation:
 ---------------------------------------------------------------------
 Center     Atomic      Atomic             Coordinates (Angstroms)
 Number     Number       Type             X           Y           Z
 ---------------------------------------------------------------------
      1          6           0        1.068731   -0.643154    0.547519
      2          6           0        3.410207    0.794446   -0.566790
      3          8           0       -1.591083    0.605759    1.170998
      4          6           0        1.458874    0.829201    0.741337
      5          6           0        2.091537   -1.307366   -0.374615
      6          8           0       -0.206113   -0.823121   -0.063100
      7          6           0       -2.508242   -1.349228    0.069981
      8          6           0       -2.945129   -0.491073   -1.115935
      9          6           0       -1.319686   -0.726488    0.786066
     10          6           0       -3.183643    0.941723   -0.643110
     11          6           0       -1.948708    1.453670    0.078131
     12          6           0        3.466197   -0.683213   -0.158570
     13          8           0        2.099509    1.337239   -0.414901
     14          1           0        1.057672   -1.132054    1.527713
     15          1           0        4.118247    1.387904    0.019191
     16          1           0        3.653614    0.907758   -1.622060
     17          1           0        0.581878    1.439631    0.925651
     18          1           0        2.124987    0.917617    1.606592
     19          1           0        1.771031   -1.131399   -1.402985
     20          1           0        2.103969   -2.383352   -0.211708
     21          1           0       -2.242361   -2.359036   -0.239298
     22          1           0       -3.324077   -1.422190    0.791516
     23          1           0       -2.164744   -0.497478   -1.879543
     24          1           0       -3.845511   -0.905759   -1.567835
     25          1           0       -1.107817   -1.244670    1.724540
     26          1           0       -3.411000    1.601694   -1.480742
     27          1           0       -4.033979    0.969055    0.042465
     28          1           0       -2.114136    2.437050    0.512996
     29          1           0       -1.107583    1.521027   -0.619001
     30          1           0        3.753010   -0.781961    0.889770
     31          1           0        4.227472   -1.193957   -0.745318
 ---------------------------------------------------------------------

 SCF Done:  E(RM062X) =  -617.496529199     A.U. after    1 cycles

 The electronic state is 1-A.
 Alpha  occ. eigenvalues --  -19.63292 -19.62978 -19.62677 -10.63502 -10.58932
 Alpha  occ. eigenvalues --  -10.57983 -10.57831 -10.57618 -10.53325 -10.53229
 Alpha  occ. eigenvalues --  -10.53044 -10.52999 -10.52902  -1.20019  -1.16198
 Alpha  occ. eigenvalues --   -1.13463  -0.90977  -0.89715  -0.86944  -0.84261
 Alpha  occ. eigenvalues --   -0.75129  -0.74141  -0.72832  -0.71258  -0.64500
 Alpha  occ. eigenvalues --   -0.62798  -0.59927  -0.59825  -0.57182  -0.56831
 Alpha  occ. eigenvalues --   -0.54623  -0.52834  -0.52346  -0.50276  -0.49285
 Alpha  occ. eigenvalues --   -0.48202  -0.46530  -0.45655  -0.45229  -0.44327
 Alpha  occ. eigenvalues --   -0.44076  -0.42455  -0.41785  -0.40346  -0.39251
 Alpha  occ. eigenvalues --   -0.38506  -0.37361  -0.36317  -0.35880  -0.33207
 Alpha  occ. eigenvalues --   -0.31630
 Alpha virt. eigenvalues --   -0.00115   0.00739   0.00838   0.01160   0.02219
 Alpha virt. eigenvalues --    0.02477   0.02558   0.03349   0.03633   0.04516
 Alpha virt. eigenvalues --    0.04622   0.04754   0.05345   0.05732   0.07142

 Mulliken charges:
               1
     1  C   -0.003160
     2  C   -0.204828
     3  O   -0.276208
     4  C   -0.574889
     5  C   -0.165565
     6  O   -0.255597
     7  C   -0.404617
     8  C   -0.276972
     9  C   -0.038826
    10  C   -0.421818
    11  C   -0.116112
    12  C   -0.347372
    13  O   -0.275428
    14  H    0.207590
    15  H    0.171346
    16  H    0.167172
    17  H    0.252351
    18  H    0.174481
    19  H    0.185355
    20  H    0.186627
    21  H    0.185798
    22  H    0.187797
    23  H    0.165383
    24  H    0.186779
    25  H    0.230848
    26  H    0.172895
    27  H    0.167114
    28  H    0.208671
    29  H    0.158225
    30  H    0.181358
    31  H    0.171600
 Sum of Mulliken charges =  -0.00000

 Dipole moment (field-independent basis, Debye):
    X=              0.7027    Y=             -1.7730    Z=              0.5937  Tot=              1.9974
 Quadrupole moment (field-independent basis, Debye-Ang):
   XX=            -68.4189   YY=            -80.7606   ZZ=            -81.0771
   XY=             -3.0616   XZ=              3.5772   YZ=             -1.5564

  Exact polarizability: 173.361  -0.328 158.711  -0.277  -1.064 151.655
 Approx polarizability: 145.999  -1.106 141.350  -1.002  -1.198 143.233

                      1                      2                      3
                      A                      A                      A
 Frequencies --     43.3802                49.9457               106.4576
 Red. masses --      3.4402                 3.5134                 3.5244
 Frc consts  --      0.0038                 0.0052                 0.0235
 IR Inten    --      1.8894                 1.2892                 3.2509

                      4                      5                      6
                      A                      A                      A
 Frequencies --    124.7605               195.1882               217.5163
 Red. masses --      3.2455                 2.6665                 2.3639
 Frc consts  --      0.0298                 0.0599                 0.0659
 IR Inten    --      0.8035                 5.7951                 1.0208

                      7                      8                      9
                      A                      A                      A
 Frequencies --    256.8501               274.6475               297.5185
 Red. masses --      3.0150                 3.5791                 2.4808
 Frc consts  --      0.1172                 0.1591                 0.1294
 IR Inten    --      7.6643                 1.7692                 7.6141

                     10                     11                     12
                      A                      A                      A
 Frequencies --    362.6987               378.3979               435.8106
 Red. masses --      1.9917                 2.6756                 2.4055
 Frc consts  --      0.1544                 0.2257                 0.2692
 IR Inten    --      8.1896                10.7130                 1.0596

                     13                     14                     15
                      A                      A                      A
 Frequencies --    452.1420               458.8307               537.1151
 Red. masses --      3.2228                 3.0929                 2.2600
 Frc consts  --      0.3882                 0.3836                 0.3841
 IR Inten    --      8.4256                 1.4287                 3.4515

                     16                     17                     18
                      A                      A                      A
 Frequencies --    582.6586               597.6135               663.7304
 Red. masses --      2.7888                 3.4753                 2.3718
 Frc consts  --      0.5578                 0.7313                 0.6156
 IR Inten    --      6.9086                 9.8076                18.9310

                     19                     20                     21
                      A                      A                      A
 Frequencies --    708.4215               823.9915               835.3755
 Red. masses --      3.0772                 2.1890                 1.6031
 Frc consts  --      0.9099                 0.8757                 0.6591
 IR Inten    --      3.0424                11.5754                 1.1875

                     22                     23                     24
                      A                      A                      A
 Frequencies --    843.1268               861.2630               893.3037
 Red. masses --      2.9496                 1.9390                 2.3350
 Frc consts  --      1.2354                 0.8474                 1.0979
 IR Inten    --      6.6014                 3.2757                23.1281

                     25                     26                     27
                      A                      A                      A
 Frequencies --    904.1744               914.6999               917.8970
 Red. masses --      2.4145                 2.3748                 2.5027
 Frc consts  --      1.1630                 1.1707                 1.2424
 IR Inten    --     23.2839                48.7480                15.2758

                     28                     29                     30
                      A                      A                      A
 Frequencies --    936.7275               950.3623               996.1508
 Red. masses --      1.6919                 1.7270                 1.8267
 Frc consts  --      0.8747                 0.9190                 1.0680
 IR Inten    --     11.3211                 6.9036                17.0611

                     31                     32                     33
                      A                      A                      A
 Frequencies --   1028.6124              1049.1590              1062.7700
 Red. masses --      2.1384                 2.4503                 1.6524
 Frc consts  --      1.3330                 1.5891                 1.0996
 IR Inten    --     48.3164               105.7973                98.4087

                     34                     35                     36
                      A                      A                      A
 Frequencies --   1066.7128              1071.2456              1082.1830
 Red. masses --      1.7612                 2.0607                 2.2604
 Frc consts  --      1.1807                 1.3933                 1.5597
 IR Inten    --     28.7658                17.6521               156.1276

                     37                     38                     39
                      A                      A                      A
 Frequencies --   1130.7087              1144.7691              1147.6937
 Red. masses --      2.2152                 3.7238                 2.4668
 Frc consts  --      1.6686                 2.8752                 1.9144
 IR Inten    --    126.9764                95.6606                88.3517

                     40                     41                     42
                      A                      A                      A
 Frequencies --   1180.5243              1185.2717              1213.2867
 Red. masses --      3.9633                 2.9000                 1.4141
 Frc consts  --      3.2543                 2.4004                 1.2265
 IR Inten    --    120.4045                45.5388                11.9132

                     43                     44                     45
                      A                      A                      A
 Frequencies --   1221.9698              1234.8318              1254.0372
 Red. masses --      1.4280                 1.6062                 1.4628
 Frc consts  --      1.2563                 1.4430                 1.3554
 IR Inten    --     13.5346                51.8723                58.1193

                     46                     47                     48
                      A                      A                      A
 Frequencies --   1285.6606              1290.5820              1323.0376
 Red. masses --      1.2216                 1.2215                 1.1524
 Frc consts  --      1.1897                 1.1987                 1.1885
 IR Inten    --     35.9315                11.7175                 7.0465

                     49                     50                     51
                      A                      A                      A
 Frequencies --   1326.0473              1337.4089              1358.2812
 Red. masses --      1.1885                 1.2885                 1.3489
 Frc consts  --      1.2313                 1.3579                 1.4663
 IR Inten    --     18.2177                15.1463                20.3851

                     52                     53                     54
                      A                      A                      A
 Frequencies --   1362.4286              1372.7175              1384.0757
 Red. masses --      1.5426                 1.2597                 1.3656
 Frc consts  --      1.6871                 1.3985                 1.5413
 IR Inten    --      1.6721                23.0219                17.1339

                     55                     56                     57
                      A                      A                      A
 Frequencies --   1387.0071              1393.6724              1399.6814
 Red. masses --      1.4414                 1.7299                 1.3347
 Frc consts  --      1.6338                 1.9797                 1.5407
 IR Inten    --      4.2120                21.0199                15.9136

                     58                     59                     60
                      A                      A                      A
 Frequencies --   1403.8071              1421.9491              1431.2130
 Red. masses --      1.3303                 1.3416                 1.4343
 Frc consts  --      1.5446                 1.5982                 1.7310
 IR Inten    --      4.9939                11.9156                11.0288

                     61                     62                     63
                      A                      A                      A
 Frequencies --   1441.8245              1476.2482              1482.7702
 Red. masses --      1.3081                 1.1048                 1.0863
 Frc consts  --      1.6022                 1.4185                 1.4071
 IR Inten    --      3.3820                 4.9158                 8.0539

                     64                     65                     66
                      A                      A                      A
 Frequencies --   1489.8206              1495.7566              1500.1999
 Red. masses --      1.0987                 1.1070                 1.0904
 Frc consts  --      1.4367                 1.4592                 1.4459
 IR Inten    --      4.6943                12.9847                 9.7752

                     67                     68                     69
                      A                      A                      A
 Frequencies --   1508.3285              1510.0847              1519.5841
 Red. masses --      1.0777                 1.0940                 1.0981
 Frc consts  --      1.4445                 1.4698                 1.4939
 IR Inten    --      7.1320                 3.3410                 7.8015

                     70                     71                     72
                      A                      A                      A
 Frequencies --   3028.0933              3041.5810              3044.0686
 Red. masses --      1.0759                 1.0679                 1.0817
 Frc consts  --      5.8122                 5.8205                 5.9058
 IR Inten    --     23.5991                88.5893                79.3696

                     73                     74                     75
                      A                      A                      A
 Frequencies --   3048.5424              3063.1268              3066.5469
 Red. masses --      1.0689                 1.0632                 1.0808
 Frc consts  --      5.8527                 5.8773                 5.9881
 IR Inten    --     54.9564                38.9094                45.6467

                     76                     77                     78
                      A                      A                      A
 Frequencies --   3072.3338              3075.0642              3081.2465
 Red. masses --      1.0633                 1.0685                 1.0668
 Frc consts  --      5.9136                 5.9527                 5.9672
 IR Inten    --     24.2475                20.2868                71.6957

                     79                     80                     81
                      A                      A                      A
 Frequencies --   3082.8123              3113.0807              3115.4236
 Red. masses --      1.0610                 1.0983                 1.0959
 Frc consts  --      5.9408                 6.2711                 6.2670
 IR Inten    --     48.1962                37.0524                18.0114

                     82                     83                     84
                      A                      A                      A
 Frequencies --   3119.1740              3131.6865              3132.4106
 Red. masses --      1.1024                 1.1028                 1.0980
 Frc consts  --      6.3191                 6.3727                 6.3475
 IR Inten    --     64.4427                41.3002                52.6193

                     85                     86                     87
                      A                      A                      A
 Frequencies --   3133.8727              3134.5316              3189.0721
 Red. masses --      1.0985                 1.1041                 1.0912
 Frc consts  --      6.3564                 6.3914                 6.5385
 IR Inten    --     39.6679                51.6507                 7.1570

 - Thermochemistry -
 -------------------
 Temperature   298.150 Kelvin.  Pressure   1.00000 Atm.
 Atom     1 has atomic number  6 and mass  12.00000

 Molecular mass:   186.12559 amu.
 Principal axes and moments of inertia in atomic units:
                           1         2         3
     Eigenvalues --  1035.755403909.734064284.12834
           X            0.99995  -0.00566   0.00825
           Y            0.00569   0.99997  -0.00451
           Z           -0.00822   0.00456   0.99996
 This molecule is an asymmetric top.
 Rotational symmetry number  1.
 Warning -- assumption of classical behavior for rotation
           may cause significant error
 Rotational temperatures (Kelvin)      0.08362     0.02215     0.02022
 Rotational constants (GHZ):           1.74244     0.46160     0.42126
 Zero-point vibrational energy     737314.7 (Joules/Mol)
                                  176.22243 (Kcal/Mol)
 Warning -- explicit consideration of  17 degrees of freedom as
           vibrations may cause significant error
 Vibrational temperatures:     62.41    71.86   153.17   179.50   280.83
          (Kelvin)            312.96   369.55   395.16   428.06   521.84
                              544.43   627.03   650.53   660.15   772.79
                              838.32   859.83   954.96  1019.26  1185.54
                             1201.92  1213.07  1239.17  1285.26  1300.91
                             1316.05  1320.65  1347.74  1367.36  1433.24
                             1479.94  1509.51  1529.09  1534.76  1541.28
                             1557.02  1626.84  1647.07  1651.28  1698.51
                             1705.34  1745.65  1758.14  1776.65  1804.28
                             1849.78  1856.86  1903.56  1907.89  1924.23
                             1954.26  1960.23  1975.03  1991.38  1995.59
                             2005.18  2013.83  2019.77  2045.87  2059.20
                             2074.46  2123.99  2133.38  2143.52  2152.06
                             2158.45  2170.15  2172.68  2186.34  4356.75
                             4376.16  4379.74  4386.17  4407.16  4412.08
                             4420.40  4424.33  4433.23  4435.48  4479.03
                             4482.40  4487.80  4505.80  4506.84  4508.94
                             4509.89  4588.36

 Zero-point correction=                           0.280828 (Hartree/Particle)
 Thermal correction to Energy=                    0.292570
 Thermal correction to Enthalpy=                  0.293514
 Thermal correction to Gibbs Free Energy=         0.242455
 Sum of electronic and zero-point Energies=           -617.215701
 Sum of electronic and thermal Energies=              -617.203960
 Sum of electronic and thermal Enthalpies=            -617.203015
 Sum of electronic and thermal Free Energies=         -617.254074

                     E (Thermal)             CV                S
                      KCal/Mol        Cal/Mol-Kelvin    Cal/Mol-Kelvin
 Total                  183.590             46.631            107.462
 Electronic               0.000              0.000              0.000
 Translational            0.889              2.981             41.570
 Rotational               0.889              2.981             31.229
 Vibrational            181.813             40.670             34.663
 Vibration     1          0.595              1.980              5.098
 Vibration     2          0.595              1.978              4.820
 Vibration     3          0.605              1.944              3.333
 Vibration     4          0.610              1.928              3.025
 Vibration     5          0.636              1.847              2.178
 Vibration     6          0.646              1.814              1.980
 Vibration     7          0.666              1.751              1.683
 Vibration     8          0.677              1.720              1.567
 Vibration     9          0.691              1.678              1.431
 Vibration    10          0.737              1.549              1.111
 Vibration    11          0.749              1.516              1.046
 Vibration    12          0.796              1.392              0.840
 Vibration    13          0.811              1.356              0.789
 Vibration    14          0.817              1.341              0.770
 Vibration    15          0.892              1.168              0.572
 Vibration    16          0.939              1.069              0.480
 Vibration    17          0.956              1.037              0.454

 Optimization completed.
    -- Stationary point found.
 Normal termination of Gaussian 16 at Sun Nov  4 22:48:03 2018.
