 Gaussian 16, Revision A.03,
 Gaussian 16:  ES64L-G16RevA.03 25-Dec-2016

 ----------------------------------------------------------------------
 #M062X/6-311++G(2d,2p) opt=ModRedundant freq=noraman SCRF=(Solvent=Wat
 er)
 ----------------------------------------------------------------------

 ----------------------------
 D_a1-4_2SO_PSI.inp_extract_7
 ----------------------------
 Symbolic Z-matrix:
 Charge =  0 Multiplicity = 1

 SCF Done:  E(RM062X) =  -617.492069527     A.U. after   12 cycles
 SCF Done:  E(RM062X) =  -617.493653577     A.U. after   11 cycles
 SCF Done:  E(RM062X) =  -617.493933776     A.U. after   11 cycles
 SCF Done:  E(RM062X) =  -617.494079035     A.U. after    9 cycles
 SCF Done:  E(RM062X) =  -617.494092977     A.U. after    9 cycles
 SCF Done:  E(RM062X) =  -617.494094208     A.U. after    8 cycles
 SCF Done:  E(RM062X) =  -617.494094483     A.U. after    8 cycles
 SCF Done:  E(RM062X) =  -617.494094520     A.U. after    7 cycles
 Optimization completed.
    -- Stationary point found.
 Normal termination of Gaussian 16 at Sun Nov  4 21:59:05 2018.

 ----------------------------------------------------------------------
 #N Geom=AllCheck Guess=TCheck SCRF=Check GenChk RM062X/6-311++G(2d,2p)
  Freq
 ----------------------------------------------------------------------

 Structure from the checkpoint file:  "D_a1-4_2SO_PSI.inp_extract_7.chk"
 ----------------------------
 D_a1-4_2SO_PSI.inp_extract_7
 ----------------------------
 Charge =  0 Multiplicity = 1

                         Standard orientation:
 ---------------------------------------------------------------------
 Center     Atomic      Atomic             Coordinates (Angstroms)
 Number     Number       Type             X           Y           Z
 ---------------------------------------------------------------------
      1          6           0        1.102337   -0.884477    0.441967
      2          6           0        3.322755    0.881094   -0.421595
      3          8           0       -1.401301    0.975101    0.826868
      4          6           0        1.586152    0.417980    1.089875
      5          6           0        1.971068   -1.178402   -0.782056
      6          8           0       -0.246729   -0.858022   -0.025732
      7          6           0       -2.524310   -1.153013    0.565935
      8          6           0       -3.078737   -0.708671   -0.786899
      9          6           0       -1.225814   -0.426099    0.882191
     10          6           0       -3.200363    0.814201   -0.808089
     11          6           0       -1.865204    1.440472   -0.441036
     12          6           0        3.382762   -0.645073   -0.560680
     13          8           0        2.072915    1.318335    0.112141
     14          1           0        1.190109   -1.685138    1.184503
     15          1           0        4.135010    1.246395    0.213711
     16          1           0        3.406511    1.355792   -1.398058
     17          1           0        0.785285    0.922162    1.621384
     18          1           0        2.377869    0.181568    1.808498
     19          1           0        1.520259   -0.664978   -1.633017
     20          1           0        1.972220   -2.244382   -1.001863
     21          1           0       -2.342092   -2.226522    0.593841
     22          1           0       -3.239796   -0.911722    1.354322
     23          1           0       -2.403329   -1.031856   -1.581710
     24          1           0       -4.044609   -1.178234   -0.969963
     25          1           0       -0.904896   -0.630094    1.906481
     26          1           0       -3.509077    1.172379   -1.790686
     27          1           0       -3.954862    1.134371   -0.085339
     28          1           0       -1.941674    2.521289   -0.345774
     29          1           0       -1.116648    1.212041   -1.204596
     30          1           0        3.811029   -1.096960    0.335442
     31          1           0        4.035729   -0.907489   -1.391064
 ---------------------------------------------------------------------

 SCF Done:  E(RM062X) =  -617.494094520     A.U. after    1 cycles

 The electronic state is 1-A.
 Alpha  occ. eigenvalues --  -19.63053 -19.62756 -19.62706 -10.63453 -10.58968
 Alpha  occ. eigenvalues --  -10.57998 -10.57741 -10.57635 -10.53352 -10.53248
 Alpha  occ. eigenvalues --  -10.52999 -10.52947 -10.52797  -1.19831  -1.16187
 Alpha  occ. eigenvalues --   -1.13257  -0.90888  -0.89673  -0.86703  -0.84489
 Alpha  occ. eigenvalues --   -0.75429  -0.73916  -0.72752  -0.71117  -0.64518
 Alpha  occ. eigenvalues --   -0.62309  -0.60378  -0.59344  -0.57567  -0.56444
 Alpha  occ. eigenvalues --   -0.54388  -0.52922  -0.52443  -0.50079  -0.49300
 Alpha  occ. eigenvalues --   -0.48373  -0.46673  -0.45472  -0.45156  -0.44105
 Alpha  occ. eigenvalues --   -0.43833  -0.42419  -0.41588  -0.40643  -0.39598
 Alpha  occ. eigenvalues --   -0.38311  -0.37375  -0.36317  -0.35264  -0.32944
 Alpha  occ. eigenvalues --   -0.31697
 Alpha virt. eigenvalues --   -0.00130   0.00748   0.00795   0.01134   0.02241
 Alpha virt. eigenvalues --    0.02487   0.02587   0.03317   0.03412   0.04483
 Alpha virt. eigenvalues --    0.04557   0.04806   0.05549   0.05720   0.07046

 Mulliken charges:
               1
     1  C   -0.174219
     2  C   -0.228854
     3  O   -0.260650
     4  C   -0.472488
     5  C   -0.165688
     6  O   -0.246880
     7  C   -0.499114
     8  C   -0.285679
     9  C    0.028585
    10  C   -0.414468
    11  C   -0.106002
    12  C   -0.297096
    13  O   -0.284674
    14  H    0.232558
    15  H    0.170321
    16  H    0.172282
    17  H    0.266173
    18  H    0.181150
    19  H    0.188986
    20  H    0.188839
    21  H    0.184645
    22  H    0.194785
    23  H    0.171710
    24  H    0.181675
    25  H    0.234377
    26  H    0.173295
    27  H    0.161265
    28  H    0.201313
    29  H    0.152842
    30  H    0.184064
    31  H    0.166946
 Sum of Mulliken charges =  -0.00000

 Dipole moment (field-independent basis, Debye):
    X=              0.8576    Y=             -2.4560    Z=              0.1028  Tot=              2.6035
 Quadrupole moment (field-independent basis, Debye-Ang):
   XX=            -68.3115   YY=            -83.2891   ZZ=            -77.6369
   XY=             -3.0075   XZ=              1.0183   YZ=             -4.1410

  Exact polarizability: 172.569   0.012 157.113  -0.482  -2.684 154.112
 Approx polarizability: 145.599  -1.686 141.568  -0.618  -1.743 143.593

                      1                      2                      3
                      A                      A                      A
 Frequencies --     43.8791                50.9021                93.1703
 Red. masses --      3.4757                 3.8637                 3.3168
 Frc consts  --      0.0039                 0.0059                 0.0170
 IR Inten    --      0.3220                 1.6706                 1.1079

                      4                      5                      6
                      A                      A                      A
 Frequencies --    113.6743               191.6704               205.5839
 Red. masses --      3.3811                 3.8155                 2.4117
 Frc consts  --      0.0257                 0.0826                 0.0601
 IR Inten    --      4.8756                 2.4192                 5.8645

                      7                      8                      9
                      A                      A                      A
 Frequencies --    238.5743               279.2610               308.6960
 Red. masses --      2.3186                 2.6493                 2.9034
 Frc consts  --      0.0778                 0.1217                 0.1630
 IR Inten    --      6.5606                 2.3290                 7.3339

                     10                     11                     12
                      A                      A                      A
 Frequencies --    358.1400               396.5715               436.6401
 Red. masses --      2.0328                 2.8445                 2.4247
 Frc consts  --      0.1536                 0.2636                 0.2724
 IR Inten    --      7.4484                 5.5889                 0.6783

                     13                     14                     15
                      A                      A                      A
 Frequencies --    453.9744               463.7515               534.1751
 Red. masses --      3.2911                 2.7597                 2.2758
 Frc consts  --      0.3996                 0.3497                 0.3826
 IR Inten    --      3.4828                 7.8447                 3.6131

                     16                     17                     18
                      A                      A                      A
 Frequencies --    577.4879               589.1720               666.1288
 Red. masses --      3.4423                 2.7098                 2.5388
 Frc consts  --      0.6764                 0.5542                 0.6637
 IR Inten    --      4.6360                18.2534                18.1021

                     19                     20                     21
                      A                      A                      A
 Frequencies --    696.6428               819.6669               835.9880
 Red. masses --      2.8494                 2.2819                 1.6002
 Frc consts  --      0.8147                 0.9033                 0.6589
 IR Inten    --      3.1449                10.1323                 1.9563

                     22                     23                     24
                      A                      A                      A
 Frequencies --    844.2837               860.3670               892.5288
 Red. masses --      3.1568                 1.8750                 2.3675
 Frc consts  --      1.3258                 0.8177                 1.1112
 IR Inten    --      7.5008                 4.8770                34.0967

                     25                     26                     27
                      A                      A                      A
 Frequencies --    904.9132               913.6981               919.3388
 Red. masses --      2.4553                 2.3159                 2.4861
 Frc consts  --      1.1846                 1.1391                 1.2380
 IR Inten    --     15.0108                47.3514                11.0639

                     28                     29                     30
                      A                      A                      A
 Frequencies --    934.5018               947.2860               997.5171
 Red. masses --      1.7175                 1.6895                 1.8740
 Frc consts  --      0.8837                 0.8933                 1.0986
 IR Inten    --      9.9897                 9.0997                18.2744

                     31                     32                     33
                      A                      A                      A
 Frequencies --   1023.1393              1047.0200              1063.6682
 Red. masses --      2.2246                 2.3452                 1.5375
 Frc consts  --      1.3720                 1.5147                 1.0249
 IR Inten    --     86.4900                77.0852                70.9483

                     34                     35                     36
                      A                      A                      A
 Frequencies --   1067.8032              1071.6910              1077.8639
 Red. masses --      1.7646                 2.1973                 2.3166
 Frc consts  --      1.1854                 1.4869                 1.5857
 IR Inten    --     18.5840                17.3659               200.9140

                     37                     38                     39
                      A                      A                      A
 Frequencies --   1134.2518              1144.3384              1145.8656
 Red. masses --      2.2517                 2.8689                 3.1051
 Frc consts  --      1.7068                 2.2134                 2.4021
 IR Inten    --    105.6495                86.5416               136.2127

                     40                     41                     42
                      A                      A                      A
 Frequencies --   1176.8628              1186.3836              1211.4961
 Red. masses --      3.5253                 3.1220                 1.4132
 Frc consts  --      2.8767                 2.5890                 1.2220
 IR Inten    --    103.3760                51.9650                16.1830

                     43                     44                     45
                      A                      A                      A
 Frequencies --   1222.4283              1233.2574              1255.6952
 Red. masses --      1.4148                 1.6216                 1.4771
 Frc consts  --      1.2456                 1.4531                 1.3723
 IR Inten    --     11.1805                51.2022                42.3434

                     46                     47                     48
                      A                      A                      A
 Frequencies --   1287.3461              1292.1655              1317.3235
 Red. masses --      1.2178                 1.1961                 1.1501
 Frc consts  --      1.1891                 1.1767                 1.1759
 IR Inten    --     22.4566                10.8948                 8.6475

                     49                     50                     51
                      A                      A                      A
 Frequencies --   1331.8028              1342.1678              1358.8866
 Red. masses --      1.1970                 1.2550                 1.3430
 Frc consts  --      1.2509                 1.3320                 1.4611
 IR Inten    --      6.2061                16.6158                17.1988

                     52                     53                     54
                      A                      A                      A
 Frequencies --   1369.9964              1374.9913              1385.4034
 Red. masses --      1.5212                 1.3146                 1.4267
 Frc consts  --      1.6822                 1.4643                 1.6134
 IR Inten    --     24.9985                 1.8388                 7.5103

                     55                     56                     57
                      A                      A                      A
 Frequencies --   1387.3648              1392.2208              1398.5809
 Red. masses --      1.3864                 1.6979                 1.2976
 Frc consts  --      1.5722                 1.9389                 1.4954
 IR Inten    --     11.8148                24.9228                 1.6119

                     58                     59                     60
                      A                      A                      A
 Frequencies --   1408.2851              1423.7661              1433.9712
 Red. masses --      1.3471                 1.4085                 1.3560
 Frc consts  --      1.5741                 1.6823                 1.6428
 IR Inten    --     13.6419                21.6441                10.9900

                     61                     62                     63
                      A                      A                      A
 Frequencies --   1437.1317              1476.1013              1482.3699
 Red. masses --      1.3270                 1.1062                 1.0859
 Frc consts  --      1.6148                 1.4201                 1.4058
 IR Inten    --      6.9328                 4.3620                 8.0421

                     64                     65                     66
                      A                      A                      A
 Frequencies --   1488.7428              1494.3643              1495.7120
 Red. masses --      1.0976                 1.0960                 1.1009
 Frc consts  --      1.4333                 1.4420                 1.4510
 IR Inten    --      2.7053                21.9945                 1.9952

                     67                     68                     69
                      A                      A                      A
 Frequencies --   1505.6999              1509.0651              1518.7897
 Red. masses --      1.0776                 1.0929                 1.0982
 Frc consts  --      1.4394                 1.4664                 1.4925
 IR Inten    --      9.5305                 6.8649                 6.6657

                     70                     71                     72
                      A                      A                      A
 Frequencies --   3028.7509              3041.6239              3045.5551
 Red. masses --      1.0794                 1.0682                 1.0773
 Frc consts  --      5.8340                 5.8225                 5.8871
 IR Inten    --     20.7607                92.9846                99.1849

                     73                     74                     75
                      A                      A                      A
 Frequencies --   3056.0613              3063.0437              3069.1342
 Red. masses --      1.0689                 1.0626                 1.0750
 Frc consts  --      5.8817                 5.8741                 5.9662
 IR Inten    --     42.3094                48.5885                30.6032

                     76                     77                     78
                      A                      A                      A
 Frequencies --   3072.1841              3075.9835              3080.8951
 Red. masses --      1.0655                 1.0680                 1.0706
 Frc consts  --      5.9254                 5.9537                 5.9875
 IR Inten    --     20.2651                15.0379                83.8821

                     79                     80                     81
                      A                      A                      A
 Frequencies --   3082.4918              3113.0539              3115.4548
 Red. masses --      1.0612                 1.0976                 1.0959
 Frc consts  --      5.9409                 6.2674                 6.2668
 IR Inten    --     51.9092                39.8451                17.3723

                     82                     83                     84
                      A                      A                      A
 Frequencies --   3118.7184              3129.5634              3133.1364
 Red. masses --      1.1021                 1.1032                 1.1002
 Frc consts  --      6.3160                 6.3662                 6.3634
 IR Inten    --     64.6983                43.4747                36.8606

                     85                     86                     87
                      A                      A                      A
 Frequencies --   3134.1707              3135.2637              3172.4008
 Red. masses --      1.1025                 1.0989                 1.0920
 Frc consts  --      6.3807                 6.3645                 6.4752
 IR Inten    --     64.0207                45.6969                 8.5977

 - Thermochemistry -
 -------------------
 Temperature   298.150 Kelvin.  Pressure   1.00000 Atm.
 Atom     1 has atomic number  6 and mass  12.00000

 Molecular mass:   186.12559 amu.
 Principal axes and moments of inertia in atomic units:
                           1         2         3
     Eigenvalues --  1032.889573866.036874178.11405
           X            0.99999  -0.00388   0.00369
           Y            0.00400   0.99939  -0.03470
           Z           -0.00355   0.03471   0.99939
 This molecule is an asymmetric top.
 Rotational symmetry number  1.
 Warning -- assumption of classical behavior for rotation
           may cause significant error
 Rotational temperatures (Kelvin)      0.08386     0.02240     0.02073
 Rotational constants (GHZ):           1.74727     0.46682     0.43195
 Zero-point vibrational energy     736957.6 (Joules/Mol)
                                  176.13709 (Kcal/Mol)
 Warning -- explicit consideration of  17 degrees of freedom as
           vibrations may cause significant error
 Vibrational temperatures:     63.13    73.24   134.05   163.55   275.77
          (Kelvin)            295.79   343.26   401.79   444.14   515.28
                              570.58   628.23   653.17   667.24   768.56
                              830.88   847.69   958.41  1002.31  1179.32
                             1202.80  1214.74  1237.88  1284.15  1301.97
                             1314.61  1322.72  1344.54  1362.93  1435.20
                             1472.07  1506.43  1530.38  1536.33  1541.92
                             1550.81  1631.94  1646.45  1648.64  1693.24
                             1706.94  1743.07  1758.80  1774.38  1806.67
                             1852.20  1859.14  1895.33  1916.17  1931.08
                             1955.13  1971.12  1978.31  1993.29  1996.11
                             2003.10  2012.25  2026.21  2048.48  2063.16
                             2067.71  2123.78  2132.80  2141.97  2150.06
                             2152.00  2166.37  2171.21  2185.20  4357.70
                             4376.22  4381.87  4396.99  4407.04  4415.80
                             4420.19  4425.65  4432.72  4435.02  4478.99
                             4482.44  4487.14  4502.74  4507.88  4509.37
                             4510.95  4564.38

 Zero-point correction=                           0.280692 (Hartree/Particle)
 Thermal correction to Energy=                    0.292502
 Thermal correction to Enthalpy=                  0.293446
 Thermal correction to Gibbs Free Energy=         0.242154
 Sum of electronic and zero-point Energies=           -617.213402
 Sum of electronic and thermal Energies=              -617.201592
 Sum of electronic and thermal Enthalpies=            -617.200648
 Sum of electronic and thermal Free Energies=         -617.251941

                     E (Thermal)             CV                S
                      KCal/Mol        Cal/Mol-Kelvin    Cal/Mol-Kelvin
 Total                  183.548             46.696            107.954
 Electronic               0.000              0.000              0.000
 Translational            0.889              2.981             41.570
 Rotational               0.889              2.981             31.190
 Vibrational            181.770             40.734             35.195
 Vibration     1          0.595              1.980              5.076
 Vibration     2          0.595              1.977              4.782
 Vibration     3          0.602              1.954              3.592
 Vibration     4          0.607              1.938              3.205
 Vibration     5          0.634              1.851              2.212
 Vibration     6          0.640              1.832              2.083
 Vibration     7          0.657              1.782              1.813
 Vibration     8          0.680              1.712              1.538
 Vibration     9          0.698              1.657              1.369
 Vibration    10          0.733              1.559              1.130
 Vibration    11          0.763              1.477              0.975
 Vibration    12          0.797              1.390              0.837
 Vibration    13          0.812              1.352              0.784
 Vibration    14          0.821              1.330              0.755
 Vibration    15          0.889              1.174              0.578
 Vibration    16          0.934              1.080              0.490
 Vibration    17          0.946              1.055              0.469

 Optimization completed.
    -- Stationary point found.
 Normal termination of Gaussian 16 at Sun Nov  4 22:55:01 2018.
