 Gaussian 16, Revision A.03,
 Gaussian 16:  ES64L-G16RevA.03 25-Dec-2016

 ----------------------------------------------------------------------
 #M062X/6-311++G(2d,2p) opt=ModRedundant freq=noraman SCRF=(Solvent=Wat
 er)
 ----------------------------------------------------------------------

 -----------------------------
 D_a1-4_2SO_PSI.inp_extract_17
 -----------------------------
 Symbolic Z-matrix:
 Charge =  0 Multiplicity = 1

 SCF Done:  E(RM062X) =  -617.488249152     A.U. after   12 cycles
 SCF Done:  E(RM062X) =  -617.489847010     A.U. after   12 cycles
 SCF Done:  E(RM062X) =  -617.490240914     A.U. after   11 cycles
 SCF Done:  E(RM062X) =  -617.490460553     A.U. after   11 cycles
 SCF Done:  E(RM062X) =  -617.490479225     A.U. after    9 cycles
 SCF Done:  E(RM062X) =  -617.490481655     A.U. after    8 cycles
 SCF Done:  E(RM062X) =  -617.490482230     A.U. after    8 cycles
 SCF Done:  E(RM062X) =  -617.490482429     A.U. after    8 cycles
 Optimization completed.
    -- Stationary point found.
 Normal termination of Gaussian 16 at Sun Nov  4 22:00:25 2018.

 ----------------------------------------------------------------------
 #N Geom=AllCheck Guess=TCheck SCRF=Check GenChk RM062X/6-311++G(2d,2p)
  Freq
 ----------------------------------------------------------------------

 Structure from the checkpoint file:  "D_a1-4_2SO_PSI.inp_extract_17.chk"
 -----------------------------
 D_a1-4_2SO_PSI.inp_extract_17
 -----------------------------
 Charge =  0 Multiplicity = 1

                         Standard orientation:
 ---------------------------------------------------------------------
 Center     Atomic      Atomic             Coordinates (Angstroms)
 Number     Number       Type             X           Y           Z
 ---------------------------------------------------------------------
      1          6           0       -0.996862   -0.053922    0.865202
      2          6           0       -3.591128    0.032066   -0.550964
      3          8           0        1.353190    0.995141   -0.753718
      4          6           0       -2.044446   -1.173171    0.728691
      5          6           0       -1.431848    1.138043    0.006939
      6          8           0        0.310794   -0.581801    0.613899
      7          6           0        2.122354   -1.299724   -0.705251
      8          6           0        3.192492   -0.931980    0.321932
      9          6           0        0.938119   -0.347494   -0.618146
     10          6           0        3.560529    0.543108    0.168388
     11          6           0        2.304861    1.397349    0.230565
     12          6           0       -2.950899    1.256922    0.115370
     13          8           0       -2.722740   -1.098943   -0.511679
     14          1           0       -0.969099    0.258973    1.910787
     15          1           0       -4.540736   -0.223062   -0.071112
     16          1           0       -3.775657    0.223461   -1.606729
     17          1           0       -1.547651   -2.139720    0.769723
     18          1           0       -2.768042   -1.119626    1.549124
     19          1           0       -1.169108    0.978385   -1.036998
     20          1           0       -0.928144    2.045018    0.333306
     21          1           0        1.766886   -2.320121   -0.568348
     22          1           0        2.534614   -1.218930   -1.712730
     23          1           0        2.808360   -1.108479    1.328339
     24          1           0        4.069744   -1.565164    0.192864
     25          1           0        0.246309   -0.514378   -1.445056
     26          1           0        4.253424    0.860206    0.948441
     27          1           0        4.049883    0.702988   -0.795558
     28          1           0        2.520720    2.442489    0.019758
     29          1           0        1.848891    1.331932    1.222750
     30          1           0       -3.241026    1.319940    1.165933
     31          1           0       -3.308349    2.163732   -0.368872
 ---------------------------------------------------------------------

 SCF Done:  E(RM062X) =  -617.490482429     A.U. after    1 cycles

 The electronic state is 1-A.
 Alpha  occ. eigenvalues --  -19.62799 -19.62778 -19.62603 -10.63329 -10.58955
 Alpha  occ. eigenvalues --  -10.58021 -10.57797 -10.57613 -10.53342 -10.53245
 Alpha  occ. eigenvalues --  -10.52926 -10.52875 -10.52766  -1.19618  -1.16337
 Alpha  occ. eigenvalues --   -1.12955  -0.90839  -0.89458  -0.87061  -0.84241
 Alpha  occ. eigenvalues --   -0.75028  -0.74492  -0.72730  -0.70696  -0.65083
 Alpha  occ. eigenvalues --   -0.61693  -0.60649  -0.58758  -0.57626  -0.55816
 Alpha  occ. eigenvalues --   -0.54114  -0.53490  -0.52359  -0.50419  -0.49123
 Alpha  occ. eigenvalues --   -0.48267  -0.45848  -0.45539  -0.45055  -0.44711
 Alpha  occ. eigenvalues --   -0.44076  -0.42114  -0.41965  -0.40213  -0.39428
 Alpha  occ. eigenvalues --   -0.38176  -0.37664  -0.35782  -0.35357  -0.33125
 Alpha  occ. eigenvalues --   -0.31238
 Alpha virt. eigenvalues --   -0.00153   0.00748   0.00818   0.01162   0.02206
 Alpha virt. eigenvalues --    0.02475   0.02613   0.03266   0.03683   0.04369
 Alpha virt. eigenvalues --    0.04463   0.04905   0.05511   0.05778   0.07066

 Mulliken charges:
               1
     1  C   -0.343826
     2  C   -0.254539
     3  O   -0.243414
     4  C   -0.206718
     5  C   -0.039555
     6  O   -0.259916
     7  C   -0.573206
     8  C   -0.258571
     9  C    0.012851
    10  C   -0.457255
    11  C   -0.047919
    12  C   -0.427835
    13  O   -0.278964
    14  H    0.233410
    15  H    0.172747
    16  H    0.180267
    17  H    0.181940
    18  H    0.178515
    19  H    0.227627
    20  H    0.191697
    21  H    0.178123
    22  H    0.196430
    23  H    0.175176
    24  H    0.184223
    25  H    0.257889
    26  H    0.173060
    27  H    0.159850
    28  H    0.202217
    29  H    0.141770
    30  H    0.186518
    31  H    0.157408
 Sum of Mulliken charges =  -0.00000

 Dipole moment (field-independent basis, Debye):
    X=             -0.1042    Y=              1.3511    Z=              1.5781  Tot=              2.0801
 Quadrupole moment (field-independent basis, Debye-Ang):
   XX=            -71.9365   YY=            -81.2774   ZZ=            -80.1612
   XY=             -5.2435   XZ=             -2.1671   YZ=              1.0087

  Exact polarizability: 174.233  -1.004 158.310   0.803   0.289 150.482
 Approx polarizability: 145.349  -0.673 141.855   0.107  -0.261 143.467

 ******    1 imaginary frequencies (negative Signs) ******

                      1                      2                      3
                      A                      A                      A
 Frequencies --    -51.6819                51.3672                84.7545
 Red. masses --      3.8667                 3.6807                 3.3637
 Frc consts  --      0.0061                 0.0057                 0.0142
 IR Inten    --      2.9330                 1.4311                 1.9001

                      4                      5                      6
                      A                      A                      A
 Frequencies --    112.7316               181.7053               229.0224
 Red. masses --      3.6123                 2.7397                 2.5964
 Frc consts  --      0.0270                 0.0533                 0.0802
 IR Inten    --      4.8368                 4.2654                 3.1116

                      7                      8                      9
                      A                      A                      A
 Frequencies --    241.6748               268.6768               312.2766
 Red. masses --      2.9706                 2.3187                 2.2518
 Frc consts  --      0.1022                 0.0986                 0.1294
 IR Inten    --      3.2917                 1.3401                 0.8528

                     10                     11                     12
                      A                      A                      A
 Frequencies --    358.4825               391.8680               439.0192
 Red. masses --      2.3970                 2.3154                 3.0038
 Frc consts  --      0.1815                 0.2095                 0.3411
 IR Inten    --      5.1190                24.1719                 5.2571

                     13                     14                     15
                      A                      A                      A
 Frequencies --    447.1757               458.1445               533.6067
 Red. masses --      2.5805                 4.0163                 2.4111
 Frc consts  --      0.3040                 0.4967                 0.4045
 IR Inten    --      0.4315                 3.0803                 5.1236

                     16                     17                     18
                      A                      A                      A
 Frequencies --    575.1063               636.8313               658.1341
 Red. masses --      3.0019                 3.5789                 2.2797
 Frc consts  --      0.5850                 0.8552                 0.5818
 IR Inten    --      4.5482                10.6444                19.1170

                     19                     20                     21
                      A                      A                      A
 Frequencies --    683.3965               801.4764               835.1672
 Red. masses --      2.8337                 2.4393                 1.5213
 Frc consts  --      0.7797                 0.9232                 0.6252
 IR Inten    --      1.5982                 1.1447                 3.4933

                     22                     23                     24
                      A                      A                      A
 Frequencies --    841.0187               860.9860               893.0176
 Red. masses --      3.4413                 1.7444                 2.4075
 Frc consts  --      1.4341                 0.7619                 1.1312
 IR Inten    --      9.8570                 6.7166                19.4302

                     25                     26                     27
                      A                      A                      A
 Frequencies --    909.8727               916.7844               919.9522
 Red. masses --      2.3944                 2.6304                 2.3423
 Frc consts  --      1.1679                 1.3026                 1.1679
 IR Inten    --     34.9907                 8.3515                50.6704

                     28                     29                     30
                      A                      A                      A
 Frequencies --    927.4101               967.6428               977.8286
 Red. masses --      1.8002                 1.5823                 1.8997
 Frc consts  --      0.9122                 0.8729                 1.0702
 IR Inten    --     24.4083                 4.1126                34.4377

                     31                     32                     33
                      A                      A                      A
 Frequencies --   1029.6095              1044.7288              1061.9047
 Red. masses --      2.0802                 2.3790                 1.7369
 Frc consts  --      1.2993                 1.5298                 1.1539
 IR Inten    --     41.8360                72.1315               104.5435

                     34                     35                     36
                      A                      A                      A
 Frequencies --   1063.6050              1072.6563              1081.8441
 Red. masses --      1.6860                 2.1204                 2.4959
 Frc consts  --      1.1238                 1.4374                 1.7211
 IR Inten    --     19.3372                15.7384               208.3081

                     37                     38                     39
                      A                      A                      A
 Frequencies --   1130.3860              1144.0599              1152.6607
 Red. masses --      2.6446                 4.5797                 2.1425
 Frc consts  --      1.9909                 3.5317                 1.6772
 IR Inten    --    111.2669               110.4961                23.9105

                     40                     41                     42
                      A                      A                      A
 Frequencies --   1163.7820              1184.8329              1210.1394
 Red. masses --      2.5607                 3.7309                 1.4015
 Frc consts  --      2.0434                 3.0858                 1.2092
 IR Inten    --     44.3248               178.6841                18.9881

                     43                     44                     45
                      A                      A                      A
 Frequencies --   1224.7491              1233.7004              1254.7162
 Red. masses --      1.4474                 1.6334                 1.4337
 Frc consts  --      1.2792                 1.4647                 1.3298
 IR Inten    --      7.5440                45.7631                38.1787

                     46                     47                     48
                      A                      A                      A
 Frequencies --   1287.6921              1288.9760              1319.9039
 Red. masses --      1.2086                 1.2226                 1.1505
 Frc consts  --      1.1807                 1.1968                 1.1809
 IR Inten    --      6.4515                25.1765                 8.1452

                     49                     50                     51
                      A                      A                      A
 Frequencies --   1329.7928              1345.5483              1359.8750
 Red. masses --      1.2039                 1.3366                 1.3653
 Frc consts  --      1.2544                 1.4258                 1.4876
 IR Inten    --     31.7990                11.7832                 1.6532

                     52                     53                     54
                      A                      A                      A
 Frequencies --   1366.8532              1380.8617              1385.1184
 Red. masses --      1.4901                 1.3529                 1.3813
 Frc consts  --      1.6402                 1.5199                 1.5614
 IR Inten    --      4.2656                 3.4254                 3.2214

                     55                     56                     57
                      A                      A                      A
 Frequencies --   1388.4852              1392.8264              1396.7860
 Red. masses --      1.3721                 1.4379                 1.3145
 Frc consts  --      1.5585                 1.6435                 1.5110
 IR Inten    --      4.4442                16.2936                19.6931

                     58                     59                     60
                      A                      A                      A
 Frequencies --   1415.5501              1417.2322              1424.4420
 Red. masses --      1.3543                 1.3334                 1.3440
 Frc consts  --      1.5989                 1.5780                 1.6067
 IR Inten    --     14.6758                 2.7824                 7.5342

                     61                     62                     63
                      A                      A                      A
 Frequencies --   1436.8850              1474.9975              1482.4549
 Red. masses --      1.3343                 1.1046                 1.0873
 Frc consts  --      1.6231                 1.4159                 1.4079
 IR Inten    --     23.9216                 5.0197                 7.1962

                     64                     65                     66
                      A                      A                      A
 Frequencies --   1487.3765              1496.0149              1497.0337
 Red. masses --      1.1064                 1.1067                 1.0939
 Frc consts  --      1.4421                 1.4593                 1.4445
 IR Inten    --      3.3041                10.3301                13.3835

                     67                     68                     69
                      A                      A                      A
 Frequencies --   1504.5700              1508.3461              1518.1997
 Red. masses --      1.0771                 1.0937                 1.0991
 Frc consts  --      1.4366                 1.4660                 1.4926
 IR Inten    --      6.4737                 3.9736                 3.7022

                     70                     71                     72
                      A                      A                      A
 Frequencies --   3034.2012              3041.6524              3052.0434
 Red. masses --      1.0704                 1.0678                 1.0690
 Frc consts  --      5.8064                 5.8203                 5.8667
 IR Inten    --     56.3913                85.2488                56.2952

                     73                     74                     75
                      A                      A                      A
 Frequencies --   3062.8471              3073.4061              3074.3837
 Red. masses --      1.0625                 1.0641                 1.0682
 Frc consts  --      5.8725                 5.9219                 5.9489
 IR Inten    --     46.1664                39.9574                59.5717

                     76                     77                     78
                      A                      A                      A
 Frequencies --   3075.1522              3077.3853              3091.0981
 Red. masses --      1.0837                 1.0645                 1.0826
 Frc consts  --      6.0377                 5.9399                 6.0945
 IR Inten    --     37.8355                19.8393                66.7055

                     79                     80                     81
                      A                      A                      A
 Frequencies --   3107.9403              3112.6133              3117.4245
 Red. masses --      1.0635                 1.0982                 1.0938
 Frc consts  --      6.0526                 6.2685                 6.2630
 IR Inten    --     21.5375                38.3755                16.1511

                     82                     83                     84
                      A                      A                      A
 Frequencies --   3119.2465              3131.2879              3133.3682
 Red. masses --      1.1025                 1.1032                 1.0983
 Frc consts  --      6.3202                 6.3729                 6.3531
 IR Inten    --     63.6847                40.5621                43.5015

                     85                     86                     87
                      A                      A                      A
 Frequencies --   3134.7335              3143.6484              3153.9129
 Red. masses --      1.0985                 1.0959                 1.1051
 Frc consts  --      6.3601                 6.3808                 6.4765
 IR Inten    --     69.1213                20.9959                38.0556

 - Thermochemistry -
 -------------------
 Temperature   298.150 Kelvin.  Pressure   1.00000 Atm.
 Atom     1 has atomic number  6 and mass  12.00000

 Molecular mass:   186.12559 amu.
 Principal axes and moments of inertia in atomic units:
                           1         2         3
     Eigenvalues --   934.659504002.135454412.15479
           X            0.99994  -0.01129  -0.00078
           Y            0.01130   0.99985   0.01306
           Z            0.00063  -0.01307   0.99991
 This molecule is an asymmetric top.
 Rotational symmetry number  1.
 Warning -- assumption of classical behavior for rotation
           may cause significant error
 Rotational temperatures (Kelvin)      0.09267     0.02164     0.01963
 Rotational constants (GHZ):           1.93091     0.45094     0.40904
    1 imaginary frequencies ignored.
 Zero-point vibrational energy     736963.5 (Joules/Mol)
                                  176.13850 (Kcal/Mol)
 Warning -- explicit consideration of  15 degrees of freedom as
           vibrations may cause significant error
 Vibrational temperatures:     73.91   121.94   162.20   261.43   329.51
          (Kelvin)            347.72   386.57   449.30   515.78   563.81
                              631.65   643.39   659.17   767.74   827.45
                              916.26   946.91   983.26  1153.15  1201.62
                             1210.04  1238.77  1284.85  1309.10  1319.05
                             1323.61  1334.34  1392.22  1406.88  1481.38
                             1503.13  1527.84  1530.29  1543.31  1556.53
                             1626.37  1646.05  1658.42  1674.42  1704.71
                             1741.12  1762.14  1775.02  1805.26  1852.70
                             1854.55  1899.05  1913.28  1935.94  1956.56
                             1966.60  1986.75  1992.88  1997.72  2003.97
                             2009.66  2036.66  2039.08  2049.45  2067.36
                             2122.19  2132.92  2140.00  2152.43  2153.90
                             2164.74  2170.17  2184.35  4365.54  4376.26
                             4391.21  4406.75  4421.95  4423.35  4424.46
                             4427.67  4447.40  4471.63  4478.36  4485.28
                             4487.90  4505.22  4508.22  4510.18  4523.01
                             4537.78

 Zero-point correction=                           0.280695 (Hartree/Particle)
 Thermal correction to Energy=                    0.291664
 Thermal correction to Enthalpy=                  0.292608
 Thermal correction to Gibbs Free Energy=         0.243672
 Sum of electronic and zero-point Energies=           -617.209788
 Sum of electronic and thermal Energies=              -617.198819
 Sum of electronic and thermal Enthalpies=            -617.197875
 Sum of electronic and thermal Free Energies=         -617.246811

                     E (Thermal)             CV                S
                      KCal/Mol        Cal/Mol-Kelvin    Cal/Mol-Kelvin
 Total                  183.022             44.723            102.995
 Electronic               0.000              0.000              0.000
 Translational            0.889              2.981             41.570
 Rotational               0.889              2.981             31.179
 Vibrational            181.244             38.761             30.246
 Vibration     1          0.596              1.977              4.764
 Vibration     2          0.601              1.960              3.778
 Vibration     3          0.607              1.939              3.221
 Vibration     4          0.630              1.865              2.311
 Vibration     5          0.652              1.797              1.887
 Vibration     6          0.658              1.776              1.791
 Vibration     7          0.673              1.731              1.605
 Vibration     8          0.701              1.650              1.350
 Vibration     9          0.733              1.558              1.129
 Vibration    10          0.759              1.488              0.993
 Vibration    11          0.799              1.385              0.830
 Vibration    12          0.806              1.367              0.804
 Vibration    13          0.816              1.343              0.772
 Vibration    14          0.889              1.176              0.579
 Vibration    15          0.931              1.085              0.495

 Optimization completed.
    -- Stationary point found.
 Normal termination of Gaussian 16 at Sun Nov  4 22:52:01 2018.
