 Gaussian 16, Revision A.03,
 Gaussian 16:  ES64L-G16RevA.03 25-Dec-2016

 ----------------------------------------------------------------------
 #M062X/6-311++G(2d,2p) opt=ModRedundant freq=noraman SCRF=(Solvent=Wat
 er)
 ----------------------------------------------------------------------

 -----------------------------
 D_a1-4_2SO_PSI.inp_extract_23
 -----------------------------
 Symbolic Z-matrix:
 Charge =  0 Multiplicity = 1

 SCF Done:  E(RM062X) =  -617.495441780     A.U. after   12 cycles
 SCF Done:  E(RM062X) =  -617.497193386     A.U. after   10 cycles
 SCF Done:  E(RM062X) =  -617.497386232     A.U. after   10 cycles
 SCF Done:  E(RM062X) =  -617.497425697     A.U. after   10 cycles
 SCF Done:  E(RM062X) =  -617.497436436     A.U. after    9 cycles
 SCF Done:  E(RM062X) =  -617.497437957     A.U. after    8 cycles
 SCF Done:  E(RM062X) =  -617.497438937     A.U. after    8 cycles
 SCF Done:  E(RM062X) =  -617.497438808     A.U. after    7 cycles
 Optimization completed.
    -- Stationary point found.
 Normal termination of Gaussian 16 at Sun Nov  4 21:58:32 2018.

 ----------------------------------------------------------------------
 #N Geom=AllCheck Guess=TCheck SCRF=Check GenChk RM062X/6-311++G(2d,2p)
  Freq
 ----------------------------------------------------------------------

 Structure from the checkpoint file:  "D_a1-4_2SO_PSI.inp_extract_23.chk"
 -----------------------------
 D_a1-4_2SO_PSI.inp_extract_23
 -----------------------------
 Charge =  0 Multiplicity = 1

                         Standard orientation:
 ---------------------------------------------------------------------
 Center     Atomic      Atomic             Coordinates (Angstroms)
 Number     Number       Type             X           Y           Z
 ---------------------------------------------------------------------
      1          6           0        0.916868    0.181739   -0.381738
      2          6           0        3.770157   -0.389400    0.142720
      3          8           0       -1.683290    1.269806   -0.423194
      4          6           0        1.744440   -1.003793   -0.873645
      5          6           0        1.788424    1.085455    0.499488
      6          8           0       -0.193373   -0.350279    0.338087
      7          6           0       -2.248252   -0.128970    1.479408
      8          6           0       -3.032613   -1.069802    0.565932
      9          6           0       -1.163120    0.599738    0.704235
     10          6           0       -3.533142   -0.296962   -0.653402
     11          6           0       -2.369403    0.406350   -1.331267
     12          6           0        3.228432    1.037540   -0.005421
     13          8           0        2.729924   -1.364213    0.075526
     14          1           0        0.545964    0.736700   -1.246879
     15          1           0        4.517329   -0.603242   -0.627325
     16          1           0        4.232037   -0.522649    1.119686
     17          1           0        1.096557   -1.866500   -1.014452
     18          1           0        2.216642   -0.764957   -1.831522
     19          1           0        1.745718    0.705432    1.522514
     20          1           0        1.412050    2.106992    0.506755
     21          1           0       -1.788008   -0.664654    2.308790
     22          1           0       -2.917204    0.625355    1.897390
     23          1           0       -2.384837   -1.885221    0.238739
     24          1           0       -3.864819   -1.514009    1.110951
     25          1           0       -0.710352    1.389275    1.307558
     26          1           0       -4.019371   -0.961014   -1.368666
     27          1           0       -4.266771    0.450773   -0.342398
     28          1           0       -2.704788    1.045217   -2.145135
     29          1           0       -1.666652   -0.328646   -1.735489
     30          1           0        3.255736    1.351329   -1.050412
     31          1           0        3.863937    1.725947    0.548681
 ---------------------------------------------------------------------

 SCF Done:  E(RM062X) =  -617.497438808     A.U. after    1 cycles

 The electronic state is 1-A.
 Alpha  occ. eigenvalues --  -19.63067 -19.63022 -19.62774 -10.63354 -10.58626
 Alpha  occ. eigenvalues --  -10.58033 -10.58029 -10.57817 -10.53424 -10.53295
 Alpha  occ. eigenvalues --  -10.53037 -10.52964 -10.52873  -1.20109  -1.16363
 Alpha  occ. eigenvalues --   -1.13206  -0.90862  -0.89560  -0.87298  -0.84266
 Alpha  occ. eigenvalues --   -0.75126  -0.74280  -0.72789  -0.70936  -0.64851
 Alpha  occ. eigenvalues --   -0.62512  -0.60014  -0.59200  -0.58245  -0.55622
 Alpha  occ. eigenvalues --   -0.54270  -0.53846  -0.52603  -0.50019  -0.49286
 Alpha  occ. eigenvalues --   -0.47704  -0.46357  -0.45814  -0.45389  -0.45087
 Alpha  occ. eigenvalues --   -0.43331  -0.42762  -0.42086  -0.41016  -0.39414
 Alpha  occ. eigenvalues --   -0.38471  -0.37348  -0.36163  -0.34402  -0.33345
 Alpha  occ. eigenvalues --   -0.32262
 Alpha virt. eigenvalues --   -0.00132   0.00778   0.00871   0.01085   0.02226
 Alpha virt. eigenvalues --    0.02424   0.02614   0.03418   0.03688   0.04438
 Alpha virt. eigenvalues --    0.04508   0.04605   0.05442   0.06052   0.07038

 Mulliken charges:
               1
     1  C   -0.145807
     2  C   -0.274869
     3  O   -0.284653
     4  C   -0.320809
     5  C   -0.191254
     6  O   -0.242231
     7  C   -0.376582
     8  C   -0.295898
     9  C   -0.067461
    10  C   -0.396650
    11  C   -0.129003
    12  C   -0.349173
    13  O   -0.325914
    14  H    0.235365
    15  H    0.174212
    16  H    0.174236
    17  H    0.207288
    18  H    0.185173
    19  H    0.217793
    20  H    0.178489
    21  H    0.180484
    22  H    0.190574
    23  H    0.171951
    24  H    0.180350
    25  H    0.264300
    26  H    0.171540
    27  H    0.164664
    28  H    0.205950
    29  H    0.139777
    30  H    0.190388
    31  H    0.167773
 Sum of Mulliken charges =  -0.00000

 Dipole moment (field-independent basis, Debye):
    X=             -0.1620    Y=              1.4611    Z=             -1.0578  Tot=              1.8111
 Quadrupole moment (field-independent basis, Debye-Ang):
   XX=            -71.4585   YY=            -86.3493   ZZ=            -75.8709
   XY=              8.8253   XZ=             -1.3581   YZ=              3.2840

  Exact polarizability: 174.936   2.484 151.672   1.529   1.510 156.117
 Approx polarizability: 146.114   0.546 141.152   1.242   0.115 142.876

                      1                      2                      3
                      A                      A                      A
 Frequencies --     10.2278                51.9260                77.8240
 Red. masses --      3.6658                 3.2079                 3.6573
 Frc consts  --      0.0002                 0.0051                 0.0131
 IR Inten    --      1.9069                 1.2766                 1.7591

                      4                      5                      6
                      A                      A                      A
 Frequencies --    134.5080               161.2225               207.5613
 Red. masses --      3.0810                 3.6974                 2.2260
 Frc consts  --      0.0328                 0.0566                 0.0565
 IR Inten    --      3.5029                 2.4511                 5.2909

                      7                      8                      9
                      A                      A                      A
 Frequencies --    246.6293               269.6968               308.5361
 Red. masses --      3.0637                 2.3132                 2.3676
 Frc consts  --      0.1098                 0.0991                 0.1328
 IR Inten    --      9.9651                 3.1549                 2.6871

                     10                     11                     12
                      A                      A                      A
 Frequencies --    366.5249               412.0806               425.3176
 Red. masses --      1.9380                 2.7257                 2.4523
 Frc consts  --      0.1534                 0.2727                 0.2614
 IR Inten    --      7.7720                11.4241                 5.9990

                     13                     14                     15
                      A                      A                      A
 Frequencies --    442.6179               467.7180               539.2732
 Red. masses --      3.1147                 4.0782                 2.4279
 Frc consts  --      0.3595                 0.5256                 0.4160
 IR Inten    --      5.0243                 3.9831                 4.5419

                     16                     17                     18
                      A                      A                      A
 Frequencies --    564.7680               593.3406               665.9315
 Red. masses --      3.8035                 2.6951                 2.3151
 Frc consts  --      0.7148                 0.5590                 0.6049
 IR Inten    --      9.4544                 5.0573                11.7294

                     19                     20                     21
                      A                      A                      A
 Frequencies --    720.2961               819.4660               833.3219
 Red. masses --      2.9051                 2.0711                 1.5707
 Frc consts  --      0.8880                 0.8194                 0.6426
 IR Inten    --      0.7328                 6.5673                 0.0668

                     22                     23                     24
                      A                      A                      A
 Frequencies --    840.1438               865.4508               894.5032
 Red. masses --      3.3881                 1.8806                 2.3906
 Frc consts  --      1.4090                 0.8299                 1.1270
 IR Inten    --      8.9809                 5.9742                16.6908

                     25                     26                     27
                      A                      A                      A
 Frequencies --    908.5347               917.6800               924.4620
 Red. masses --      2.4432                 2.4570                 1.9408
 Frc consts  --      1.1882                 1.2191                 0.9772
 IR Inten    --     16.1080                 8.0887                66.3971

                     28                     29                     30
                      A                      A                      A
 Frequencies --    930.1534               950.8752               985.6469
 Red. masses --      2.1946                 1.5935                 1.9091
 Frc consts  --      1.1187                 0.8489                 1.0927
 IR Inten    --      7.2649                 7.4323                34.1511

                     31                     32                     33
                      A                      A                      A
 Frequencies --   1032.6833              1048.7658              1063.1162
 Red. masses --      2.1505                 2.5355                 1.6030
 Frc consts  --      1.3512                 1.6432                 1.0674
 IR Inten    --     12.5929               170.3531               100.0106

                     34                     35                     36
                      A                      A                      A
 Frequencies --   1068.4079              1072.7121              1083.2719
 Red. masses --      1.7704                 2.2533                 2.3850
 Frc consts  --      1.1907                 1.5277                 1.6489
 IR Inten    --      7.3164                10.7785               208.4589

                     37                     38                     39
                      A                      A                      A
 Frequencies --   1130.5610              1146.5938              1157.5550
 Red. masses --      2.2422                 3.9826                 2.5665
 Frc consts  --      1.6885                 3.0849                 2.0262
 IR Inten    --     83.3043                94.9696                15.2035

                     40                     41                     42
                      A                      A                      A
 Frequencies --   1173.2102              1178.4352              1214.5435
 Red. masses --      2.6442                 3.3961                 1.4130
 Frc consts  --      2.1444                 2.7787                 1.2281
 IR Inten    --     67.6070               139.4080                21.6385

                     43                     44                     45
                      A                      A                      A
 Frequencies --   1219.2412              1233.5831              1251.2861
 Red. masses --      1.3670                 1.6225                 1.4665
 Frc consts  --      1.1973                 1.4547                 1.3528
 IR Inten    --      8.4979                58.4088                35.5529

                     46                     47                     48
                      A                      A                      A
 Frequencies --   1288.1797              1289.2245              1319.9652
 Red. masses --      1.1943                 1.2161                 1.1501
 Frc consts  --      1.1677                 1.1909                 1.1806
 IR Inten    --     23.6442                12.3254                 9.6707

                     49                     50                     51
                      A                      A                      A
 Frequencies --   1327.2815              1343.4233              1359.5388
 Red. masses --      1.1795                 1.2831                 1.3448
 Frc consts  --      1.2242                 1.3643                 1.4646
 IR Inten    --     11.1666                 1.3801                10.0714

                     52                     53                     54
                      A                      A                      A
 Frequencies --   1369.1043              1376.3705              1384.4309
 Red. masses --      1.3666                 1.5066                 1.2916
 Frc consts  --      1.5092                 1.6816                 1.4585
 IR Inten    --      3.9169                 7.7260                23.0281

                     55                     56                     57
                      A                      A                      A
 Frequencies --   1387.6219              1393.5120              1400.8431
 Red. masses --      1.4708                 1.7286                 1.2540
 Frc consts  --      1.6685                 1.9778                 1.4498
 IR Inten    --      1.5160                20.8431                 5.8375

                     58                     59                     60
                      A                      A                      A
 Frequencies --   1408.1378              1421.6896              1427.9077
 Red. masses --      1.3716                 1.3818                 1.4256
 Frc consts  --      1.6024                 1.6455                 1.7125
 IR Inten    --      6.1884                 8.7835                 5.7639

                     61                     62                     63
                      A                      A                      A
 Frequencies --   1434.2919              1475.4794              1482.5856
 Red. masses --      1.3570                 1.1036                 1.0865
 Frc consts  --      1.6447                 1.4155                 1.4071
 IR Inten    --     16.2318                 5.3524                 7.4714

                     64                     65                     66
                      A                      A                      A
 Frequencies --   1490.9694              1494.7909              1495.3400
 Red. masses --      1.0936                 1.1009                 1.1049
 Frc consts  --      1.4323                 1.4493                 1.4557
 IR Inten    --      1.4711                14.1302                12.2532

                     67                     68                     69
                      A                      A                      A
 Frequencies --   1503.2585              1508.4989              1517.4784
 Red. masses --      1.0772                 1.0934                 1.0986
 Frc consts  --      1.4342                 1.4660                 1.4905
 IR Inten    --      6.8827                 3.8135                 3.2582

                     70                     71                     72
                      A                      A                      A
 Frequencies --   3039.5424              3045.7168              3047.7583
 Red. masses --      1.0684                 1.0689                 1.0693
 Frc consts  --      5.8158                 5.8421                 5.8519
 IR Inten    --    100.7450                26.5915                62.8525

                     73                     74                     75
                      A                      A                      A
 Frequencies --   3062.0270              3070.4086              3072.8759
 Red. masses --      1.0631                 1.0719                 1.0645
 Frc consts  --      5.8727                 5.9539                 5.9223
 IR Inten    --     40.1235                 8.0986                40.2835

                     76                     77                     78
                      A                      A                      A
 Frequencies --   3074.7504              3075.8558              3079.7255
 Red. masses --      1.0753                 1.0717                 1.0632
 Frc consts  --      5.9895                 5.9736                 5.9416
 IR Inten    --     33.0964                17.1578                60.3411

                     79                     80                     81
                      A                      A                      A
 Frequencies --   3085.8653              3112.6630              3115.6187
 Red. masses --      1.0768                 1.0982                 1.0957
 Frc consts  --      6.0413                 6.2690                 6.2663
 IR Inten    --     85.5541                39.0639                16.9361

                     82                     83                     84
                      A                      A                      A
 Frequencies --   3119.3934              3130.4481              3130.7611
 Red. masses --      1.1022                 1.1022                 1.1028
 Frc consts  --      6.3189                 6.3641                 6.3686
 IR Inten    --     60.2130                 8.6178                65.6670

                     85                     86                     87
                      A                      A                      A
 Frequencies --   3133.6672              3134.0534              3138.3795
 Red. masses --      1.0997                 1.0975                 1.0976
 Frc consts  --      6.3628                 6.3515                 6.3697
 IR Inten    --     68.2384                50.7552                17.6997

 - Thermochemistry -
 -------------------
 Temperature   298.150 Kelvin.  Pressure   1.00000 Atm.
 Atom     1 has atomic number  6 and mass  12.00000

 Molecular mass:   186.12559 amu.
 Principal axes and moments of inertia in atomic units:
                           1         2         3
     Eigenvalues --   931.292564352.066934465.46613
           X            0.99987   0.01598  -0.00039
           Y           -0.01590   0.99647   0.08244
           Z            0.00171  -0.08243   0.99660
 This molecule is an asymmetric top.
 Rotational symmetry number  1.
 Warning -- assumption of classical behavior for rotation
           may cause significant error
 Rotational temperatures (Kelvin)      0.09300     0.01990     0.01940
 Rotational constants (GHZ):           1.93789     0.41469     0.40416
 Zero-point vibrational energy     736777.9 (Joules/Mol)
                                  176.09413 (Kcal/Mol)
 Warning -- explicit consideration of  17 degrees of freedom as
           vibrations may cause significant error
 Vibrational temperatures:     14.72    74.71   111.97   193.53   231.96
          (Kelvin)            298.63   354.84   388.03   443.91   527.35
                              592.89   611.94   636.83   672.94   775.89
                              812.58   853.68   958.13  1036.35  1179.03
                             1198.96  1208.78  1245.19  1286.99  1307.18
                             1320.34  1330.09  1338.28  1368.10  1418.13
                             1485.80  1508.94  1529.59  1537.20  1543.39
                             1558.59  1626.63  1649.69  1665.46  1687.99
                             1695.51  1747.46  1754.22  1774.85  1800.32
                             1853.40  1854.91  1899.14  1909.66  1932.89
                             1956.07  1969.84  1980.29  1991.89  1996.48
                             2004.95  2015.50  2026.00  2045.49  2054.44
                             2063.63  2122.89  2133.11  2145.17  2150.67
                             2151.46  2162.85  2170.39  2183.31  4373.22
                             4382.11  4385.04  4405.57  4417.63  4421.18
                             4423.88  4425.47  4431.04  4439.87  4478.43
                             4482.68  4488.11  4504.02  4504.47  4508.65
                             4509.20  4515.43

 Zero-point correction=                           0.280624 (Hartree/Particle)
 Thermal correction to Energy=                    0.292529
 Thermal correction to Enthalpy=                  0.293473
 Thermal correction to Gibbs Free Energy=         0.240655
 Sum of electronic and zero-point Energies=           -617.216815
 Sum of electronic and thermal Energies=              -617.204910
 Sum of electronic and thermal Enthalpies=            -617.203966
 Sum of electronic and thermal Free Energies=         -617.256784

                     E (Thermal)             CV                S
                      KCal/Mol        Cal/Mol-Kelvin    Cal/Mol-Kelvin
 Total                  183.565             46.674            111.165
 Electronic               0.000              0.000              0.000
 Translational            0.889              2.981             41.570
 Rotational               0.889              2.981             31.271
 Vibrational            181.787             40.713             38.324
 Vibration     1          0.593              1.987              7.966
 Vibration     2          0.596              1.977              4.743
 Vibration     3          0.599              1.964              3.945
 Vibration     4          0.613              1.919              2.881
 Vibration     5          0.622              1.890              2.535
 Vibration     6          0.641              1.829              2.065
 Vibration     7          0.661              1.768              1.755
 Vibration     8          0.674              1.729              1.598
 Vibration     9          0.698              1.657              1.370
 Vibration    10          0.739              1.541              1.094
 Vibration    11          0.776              1.444              0.919
 Vibration    12          0.787              1.415              0.874
 Vibration    13          0.802              1.377              0.818
 Vibration    14          0.825              1.322              0.744
 Vibration    15          0.894              1.163              0.567
 Vibration    16          0.921              1.107              0.514
 Vibration    17          0.951              1.046              0.461

                           ! Non-Optimized Parameters !
 Normal termination of Gaussian 16 at Sun Nov  4 22:51:30 2018.
