 Gaussian 16, Revision A.03,
 Gaussian 16:  ES64L-G16RevA.03 25-Dec-2016

 ----------------------------------------------------------------------
 #M062X/6-311++G(2d,2p) opt=ModRedundant freq=noraman SCRF=(Solvent=Wat
 er)
 ----------------------------------------------------------------------

 -----------------------------
 D_a1-4_2SO_PSI.inp_extract_15
 -----------------------------
 Symbolic Z-matrix:
 Charge =  0 Multiplicity = 1

 SCF Done:  E(RM062X) =  -617.491218832     A.U. after   12 cycles
 SCF Done:  E(RM062X) =  -617.493079125     A.U. after   12 cycles
 SCF Done:  E(RM062X) =  -617.493479905     A.U. after   11 cycles
 SCF Done:  E(RM062X) =  -617.493604389     A.U. after   10 cycles
 SCF Done:  E(RM062X) =  -617.493613269     A.U. after    9 cycles
 SCF Done:  E(RM062X) =  -617.493613929     A.U. after    8 cycles
 SCF Done:  E(RM062X) =  -617.493614036     A.U. after    8 cycles
 Optimization completed.
    -- Stationary point found.
 Normal termination of Gaussian 16 at Sun Nov  4 21:56:14 2018.

 ----------------------------------------------------------------------
 #N Geom=AllCheck Guess=TCheck SCRF=Check GenChk RM062X/6-311++G(2d,2p)
  Freq
 ----------------------------------------------------------------------

 Structure from the checkpoint file:  "D_a1-4_2SO_PSI.inp_extract_15.chk"
 -----------------------------
 D_a1-4_2SO_PSI.inp_extract_15
 -----------------------------
 Charge =  0 Multiplicity = 1

                         Standard orientation:
 ---------------------------------------------------------------------
 Center     Atomic      Atomic             Coordinates (Angstroms)
 Number     Number       Type             X           Y           Z
 ---------------------------------------------------------------------
      1          6           0       -1.056999   -0.086110    0.983146
      2          6           0       -3.495679    0.019791   -0.678075
      3          8           0        1.284780    0.910910   -0.834986
      4          6           0       -1.925430   -1.265756    0.500256
      5          6           0       -1.514432    1.189178    0.275533
      6          8           0        0.334774   -0.376981    0.859525
      7          6           0        2.023808   -1.366617   -0.476588
      8          6           0        3.188159   -0.868106    0.378041
      9          6           0        0.865969   -0.380008   -0.442642
     10          6           0        3.565805    0.546300   -0.059184
     11          6           0        2.336187    1.438877   -0.026628
     12          6           0       -3.041193    1.170025    0.232848
     13          8           0       -2.508895   -1.006119   -0.763530
     14          1           0       -1.203702    0.030725    2.057227
     15          1           0       -4.436844   -0.411190   -0.323851
     16          1           0       -3.637597    0.371556   -1.698338
     17          1           0       -1.306348   -2.154702    0.392039
     18          1           0       -2.711136   -1.481406    1.231751
     19          1           0       -1.125992    1.214257   -0.741111
     20          1           0       -1.130513    2.065425    0.795821
     21          1           0        1.665607   -2.339674   -0.142250
     22          1           0        2.345697   -1.464168   -1.515180
     23          1           0        2.892553   -0.858088    1.429164
     24          1           0        4.038357   -1.543155    0.286066
     25          1           0        0.094164   -0.658256   -1.163049
     26          1           0        4.335334    0.968095    0.588171
     27          1           0        3.963125    0.524355   -1.076950
     28          1           0        2.547694    2.426770   -0.429966
     29          1           0        1.979167    1.554026    1.000367
     30          1           0       -3.432950    1.036206    1.243190
     31          1           0       -3.439058    2.111303   -0.141415
 ---------------------------------------------------------------------

 SCF Done:  E(RM062X) =  -617.493614036     A.U. after    1 cycles

 The electronic state is 1-A.
 Alpha  occ. eigenvalues --  -19.62931 -19.62865 -19.62621 -10.63254 -10.58927
 Alpha  occ. eigenvalues --  -10.58061 -10.58025 -10.57586 -10.53338 -10.53050
 Alpha  occ. eigenvalues --  -10.52946 -10.52907 -10.52771  -1.19669  -1.16410
 Alpha  occ. eigenvalues --   -1.13135  -0.90754  -0.89490  -0.86834  -0.84439
 Alpha  occ. eigenvalues --   -0.74764  -0.74714  -0.72819  -0.70780  -0.65218
 Alpha  occ. eigenvalues --   -0.61458  -0.61219  -0.58662  -0.57207  -0.56116
 Alpha  occ. eigenvalues --   -0.54241  -0.53227  -0.52454  -0.50585  -0.49038
 Alpha  occ. eigenvalues --   -0.47905  -0.46192  -0.45601  -0.45135  -0.44650
 Alpha  occ. eigenvalues --   -0.44004  -0.42181  -0.41987  -0.40409  -0.39872
 Alpha  occ. eigenvalues --   -0.38059  -0.37670  -0.36498  -0.34861  -0.32879
 Alpha  occ. eigenvalues --   -0.31462
 Alpha virt. eigenvalues --   -0.00138   0.00734   0.00842   0.01162   0.02267
 Alpha virt. eigenvalues --    0.02467   0.02599   0.03307   0.03680   0.04372
 Alpha virt. eigenvalues --    0.04423   0.04965   0.05480   0.05799   0.07165

 Mulliken charges:
               1
     1  C   -0.171671
     2  C   -0.270678
     3  O   -0.237095
     4  C   -0.275132
     5  C   -0.122392
     6  O   -0.297383
     7  C   -0.458288
     8  C   -0.266322
     9  C   -0.121845
    10  C   -0.436180
    11  C   -0.092863
    12  C   -0.383000
    13  O   -0.294272
    14  H    0.255159
    15  H    0.173745
    16  H    0.180080
    17  H    0.194532
    18  H    0.180399
    19  H    0.209011
    20  H    0.197354
    21  H    0.166186
    22  H    0.191875
    23  H    0.176996
    24  H    0.185066
    25  H    0.297014
    26  H    0.172309
    27  H    0.161407
    28  H    0.198707
    29  H    0.151601
    30  H    0.179746
    31  H    0.155935
 Sum of Mulliken charges =  -0.00000

 Dipole moment (field-independent basis, Debye):
    X=             -0.5165    Y=              0.6295    Z=              1.6846  Tot=              1.8711
 Quadrupole moment (field-independent basis, Debye-Ang):
   XX=            -69.9797   YY=            -79.3658   ZZ=            -82.4280
   XY=             -3.5766   XZ=             -3.2350   YZ=              0.1463

  Exact polarizability: 174.342   0.015 158.817   0.563  -0.290 149.044
 Approx polarizability: 145.881   0.050 141.438  -0.071  -0.654 142.926

                      1                      2                      3
                      A                      A                      A
 Frequencies --     48.1324                56.3416                85.2741
 Red. masses --      3.9669                 3.5689                 3.1442
 Frc consts  --      0.0054                 0.0067                 0.0135
 IR Inten    --      1.8209                 0.9417                 3.0876

                      4                      5                      6
                      A                      A                      A
 Frequencies --    114.2033               176.7923               217.5775
 Red. masses --      3.5441                 2.7683                 2.5893
 Frc consts  --      0.0272                 0.0510                 0.0722
 IR Inten    --      4.8632                 2.6214                 3.5480

                      7                      8                      9
                      A                      A                      A
 Frequencies --    243.7635               283.0112               311.6757
 Red. masses --      2.2689                 2.8396                 2.1256
 Frc consts  --      0.0794                 0.1340                 0.1217
 IR Inten    --      4.6884                 0.7270                 2.5943

                     10                     11                     12
                      A                      A                      A
 Frequencies --    360.1248               407.2479               438.8473
 Red. masses --      2.4349                 2.3904                 3.5604
 Frc consts  --      0.1861                 0.2336                 0.4040
 IR Inten    --      8.6221                17.5527                 9.0347

                     13                     14                     15
                      A                      A                      A
 Frequencies --    447.9698               458.6947               533.5502
 Red. masses --      2.5934                 4.1227                 2.5449
 Frc consts  --      0.3066                 0.5111                 0.4268
 IR Inten    --      0.6485                 2.1220                 3.5508

                     16                     17                     18
                      A                      A                      A
 Frequencies --    563.1577               635.8431               661.1544
 Red. masses --      3.1661                 3.1850                 2.4035
 Frc consts  --      0.5916                 0.7587                 0.6190
 IR Inten    --     11.1727                16.3932                10.5946

                     19                     20                     21
                      A                      A                      A
 Frequencies --    684.3939               804.4913               836.7288
 Red. masses --      2.6184                 2.4120                 1.5254
 Frc consts  --      0.7226                 0.9197                 0.6292
 IR Inten    --      0.7348                 1.6464                 4.0779

                     22                     23                     24
                      A                      A                      A
 Frequencies --    844.3688               860.6381               893.6226
 Red. masses --      3.1773                 1.7963                 2.3127
 Frc consts  --      1.3347                 0.7839                 1.0881
 IR Inten    --      8.6818                 7.5179                19.5135

                     25                     26                     27
                      A                      A                      A
 Frequencies --    905.1064               913.6306               923.2035
 Red. masses --      2.4551                 2.6688                 2.2478
 Frc consts  --      1.1850                 1.3125                 1.1287
 IR Inten    --     29.1806                 7.9661                59.9444

                     28                     29                     30
                      A                      A                      A
 Frequencies --    929.3151               965.8836               983.3454
 Red. masses --      1.7924                 1.5990                 1.8793
 Frc consts  --      0.9120                 0.8789                 1.0707
 IR Inten    --     21.5386                 6.7344                50.5117

                     31                     32                     33
                      A                      A                      A
 Frequencies --   1018.3639              1046.3554              1061.5450
 Red. masses --      2.1512                 2.2172                 1.8365
 Frc consts  --      1.3144                 1.4303                 1.2193
 IR Inten    --     57.0505                43.6109                43.7854

                     34                     35                     36
                      A                      A                      A
 Frequencies --   1064.3739              1073.9963              1090.1400
 Red. masses --      1.5151                 2.2851                 2.5933
 Frc consts  --      1.0113                 1.5530                 1.8158
 IR Inten    --     52.9608                28.5175               241.5557

                     37                     38                     39
                      A                      A                      A
 Frequencies --   1131.9548              1145.4337              1155.1689
 Red. masses --      2.7641                 4.4238                 2.3076
 Frc consts  --      2.0867                 3.4197                 1.8143
 IR Inten    --    112.5682               127.7551                40.3158

                     40                     41                     42
                      A                      A                      A
 Frequencies --   1162.3281              1183.3331              1210.3211
 Red. masses --      2.5312                 3.5172                 1.4068
 Frc consts  --      2.0148                 2.9018                 1.2142
 IR Inten    --     15.8804               137.4802                13.1248

                     43                     44                     45
                      A                      A                      A
 Frequencies --   1220.5864              1234.7332              1254.4154
 Red. masses --      1.4336                 1.6721                 1.4567
 Frc consts  --      1.2584                 1.5020                 1.3505
 IR Inten    --      8.6788                55.1098                33.4603

                     46                     47                     48
                      A                      A                      A
 Frequencies --   1287.4699              1288.6065              1318.6484
 Red. masses --      1.2136                 1.2031                 1.1483
 Frc consts  --      1.1852                 1.1771                 1.1764
 IR Inten    --     32.5407                 7.3483                 7.7980

                     49                     50                     51
                      A                      A                      A
 Frequencies --   1330.1594              1339.6183              1360.3217
 Red. masses --      1.2073                 1.3194                 1.3506
 Frc consts  --      1.2585                 1.3951                 1.4725
 IR Inten    --     25.1803                 7.0933                 2.4380

                     52                     53                     54
                      A                      A                      A
 Frequencies --   1365.0349              1378.8619              1386.3668
 Red. masses --      1.4893                 1.3685                 1.4070
 Frc consts  --      1.6350                 1.5330                 1.5934
 IR Inten    --      6.0570                10.0946                 2.3458

                     55                     56                     57
                      A                      A                      A
 Frequencies --   1387.6834              1392.3114              1402.8499
 Red. masses --      1.3463                 1.5536                 1.2922
 Frc consts  --      1.5275                 1.7744                 1.4983
 IR Inten    --      0.6701                10.6079                 2.5556

                     58                     59                     60
                      A                      A                      A
 Frequencies --   1418.7168              1419.7735              1427.4686
 Red. masses --      1.3437                 1.3415                 1.3440
 Frc consts  --      1.5935                 1.5932                 1.6136
 IR Inten    --     21.9805                 4.9947                23.3700

                     61                     62                     63
                      A                      A                      A
 Frequencies --   1438.0629              1477.2286              1482.7604
 Red. masses --      1.2895                 1.1053                 1.0850
 Frc consts  --      1.5712                 1.4212                 1.4054
 IR Inten    --     14.4658                 4.1124                 7.9828

                     64                     65                     66
                      A                      A                      A
 Frequencies --   1493.3615              1495.6579              1498.6566
 Red. masses --      1.1015                 1.1088                 1.0942
 Frc consts  --      1.4473                 1.4614                 1.4479
 IR Inten    --      3.5154                10.5479                17.6083

                     67                     68                     69
                      A                      A                      A
 Frequencies --   1503.3160              1510.2897              1518.5802
 Red. masses --      1.0782                 1.0930                 1.0982
 Frc consts  --      1.4357                 1.4689                 1.4922
 IR Inten    --      6.2903                 3.8042                 3.2994

                     70                     71                     72
                      A                      A                      A
 Frequencies --   3035.6382              3040.9817              3057.1944
 Red. masses --      1.0696                 1.0683                 1.0685
 Frc consts  --      5.8075                 5.8205                 5.8838
 IR Inten    --     68.1656                80.8755                39.1831

                     73                     74                     75
                      A                      A                      A
 Frequencies --   3063.8112              3071.6413              3073.1364
 Red. masses --      1.0621                 1.0645                 1.0677
 Frc consts  --      5.8741                 5.9173                 5.9409
 IR Inten    --     49.1249                25.8579                49.2660

                     76                     77                     78
                      A                      A                      A
 Frequencies --   3074.5066              3090.6083              3093.1418
 Red. masses --      1.0618                 1.0855                 1.0858
 Frc consts  --      5.9137                 6.1088                 6.1207
 IR Inten    --     24.9156                58.3183                42.1280

                     79                     80                     81
                      A                      A                      A
 Frequencies --   3098.5332              3112.7716              3118.4131
 Red. masses --      1.0614                 1.0978                 1.1019
 Frc consts  --      6.0042                 6.2672                 6.3134
 IR Inten    --     18.9959                41.2511                61.6946

                     82                     83                     84
                      A                      A                      A
 Frequencies --   3119.1681              3126.7646              3132.2775
 Red. masses --      1.0950                 1.1039                 1.0967
 Frc consts  --      6.2770                 6.3590                 6.3394
 IR Inten    --     15.1337                44.3813                36.1222

                     85                     86                     87
                      A                      A                      A
 Frequencies --   3132.7561              3135.9046              3147.7631
 Red. masses --      1.0996                 1.0989                 1.1040
 Frc consts  --      6.3584                 6.3670                 6.4451
 IR Inten    --     51.4627                44.2100                37.0338

 - Thermochemistry -
 -------------------
 Temperature   298.150 Kelvin.  Pressure   1.00000 Atm.
 Atom     1 has atomic number  6 and mass  12.00000

 Molecular mass:   186.12559 amu.
 Principal axes and moments of inertia in atomic units:
                           1         2         3
     Eigenvalues --   951.583373927.639124300.19993
           X            0.99995  -0.00927  -0.00217
           Y            0.00928   0.99993   0.00782
           Z            0.00209  -0.00784   0.99997
 This molecule is an asymmetric top.
 Rotational symmetry number  1.
 Warning -- assumption of classical behavior for rotation
           may cause significant error
 Rotational temperatures (Kelvin)      0.09102     0.02205     0.02014
 Rotational constants (GHZ):           1.89657     0.45950     0.41969
 Zero-point vibrational energy     737425.7 (Joules/Mol)
                                  176.24898 (Kcal/Mol)
 Warning -- explicit consideration of  16 degrees of freedom as
           vibrations may cause significant error
 Vibrational temperatures:     69.25    81.06   122.69   164.31   254.36
          (Kelvin)            313.05   350.72   407.19   448.43   518.14
                              585.94   631.40   644.53   659.96   767.66
                              810.26   914.84   951.25   984.69  1157.48
                             1203.87  1214.86  1238.27  1285.72  1302.25
                             1314.51  1328.28  1337.08  1389.69  1414.81
                             1465.20  1505.47  1527.33  1531.40  1545.24
                             1568.47  1628.63  1648.02  1662.03  1672.33
                             1702.55  1741.38  1756.15  1776.51  1804.82
                             1852.38  1854.02  1897.24  1913.80  1927.41
                             1957.20  1963.98  1983.87  1994.67  1996.57
                             2003.23  2018.39  2041.22  2042.74  2053.81
                             2069.05  2125.40  2133.36  2148.61  2151.92
                             2156.23  2162.94  2172.97  2184.90  4367.61
                             4375.29  4398.62  4408.14  4419.41  4421.56
                             4423.53  4446.70  4450.34  4458.10  4478.58
                             4486.70  4487.79  4498.72  4506.65  4507.34
                             4511.87  4528.93

 Zero-point correction=                           0.280871 (Hartree/Particle)
 Thermal correction to Energy=                    0.292654
 Thermal correction to Enthalpy=                  0.293598
 Thermal correction to Gibbs Free Energy=         0.242460
 Sum of electronic and zero-point Energies=           -617.212743
 Sum of electronic and thermal Energies=              -617.200960
 Sum of electronic and thermal Enthalpies=            -617.200016
 Sum of electronic and thermal Free Energies=         -617.251154

                     E (Thermal)             CV                S
                      KCal/Mol        Cal/Mol-Kelvin    Cal/Mol-Kelvin
 Total                  183.643             46.659            107.630
 Electronic               0.000              0.000              0.000
 Translational            0.889              2.981             41.570
 Rotational               0.889              2.981             31.153
 Vibrational            181.866             40.697             34.907
 Vibration     1          0.595              1.978              4.893
 Vibration     2          0.596              1.975              4.581
 Vibration     3          0.601              1.959              3.766
 Vibration     4          0.607              1.938              3.196
 Vibration     5          0.628              1.871              2.362
 Vibration     6          0.646              1.814              1.979
 Vibration     7          0.659              1.773              1.775
 Vibration     8          0.682              1.705              1.515
 Vibration     9          0.700              1.651              1.353
 Vibration    10          0.735              1.554              1.122
 Vibration    11          0.772              1.454              0.936
 Vibration    12          0.799              1.385              0.830
 Vibration    13          0.807              1.365              0.802
 Vibration    14          0.817              1.342              0.770
 Vibration    15          0.889              1.176              0.579
 Vibration    16          0.919              1.111              0.518

                           ! Non-Optimized Parameters !
 Normal termination of Gaussian 16 at Sun Nov  4 22:50:45 2018.
