 Gaussian 16, Revision A.03,
 Gaussian 16:  ES64L-G16RevA.03 25-Dec-2016

 ----------------------------------------------------------------------
 #M062X/6-311++G(2d,2p) opt=ModRedundant freq=noraman SCRF=(Solvent=Wat
 er)
 ----------------------------------------------------------------------

 -----------------------------
 D_a1-4_2SO_PSI.inp_extract_14
 -----------------------------
 Symbolic Z-matrix:
 Charge =  0 Multiplicity = 1

 SCF Done:  E(RM062X) =  -617.491251644     A.U. after   12 cycles
 SCF Done:  E(RM062X) =  -617.493229922     A.U. after   12 cycles
 SCF Done:  E(RM062X) =  -617.493608111     A.U. after   10 cycles
 SCF Done:  E(RM062X) =  -617.493686239     A.U. after    9 cycles
 SCF Done:  E(RM062X) =  -617.493698370     A.U. after   10 cycles
 SCF Done:  E(RM062X) =  -617.493701347     A.U. after    8 cycles
 SCF Done:  E(RM062X) =  -617.493702517     A.U. after    8 cycles
 SCF Done:  E(RM062X) =  -617.493702700     A.U. after    7 cycles
 Optimization completed.
    -- Stationary point found.
 Normal termination of Gaussian 16 at Sun Nov  4 21:59:44 2018.

 ----------------------------------------------------------------------
 #N Geom=AllCheck Guess=TCheck SCRF=Check GenChk RM062X/6-311++G(2d,2p)
  Freq
 ----------------------------------------------------------------------

 Structure from the checkpoint file:  "D_a1-4_2SO_PSI.inp_extract_14.chk"
 -----------------------------
 D_a1-4_2SO_PSI.inp_extract_14
 -----------------------------
 Charge =  0 Multiplicity = 1

                         Standard orientation:
 ---------------------------------------------------------------------
 Center     Atomic      Atomic             Coordinates (Angstroms)
 Number     Number       Type             X           Y           Z
 ---------------------------------------------------------------------
      1          6           0       -1.073612   -0.152505    1.015800
      2          6           0       -3.428711    0.054684   -0.751294
      3          8           0        1.236905    0.825815   -0.910025
      4          6           0       -1.875178   -1.299537    0.376672
      5          6           0       -1.566541    1.183727    0.461656
      6          8           0        0.338039   -0.326809    0.906623
      7          6           0        2.050405   -1.384682   -0.351421
      8          6           0        3.201042   -0.773410    0.446716
      9          6           0        0.861154   -0.436961   -0.395864
     10          6           0        3.531332    0.606535   -0.120170
     11          6           0        2.273870    1.459264   -0.161329
     12          6           0       -3.084475    1.103670    0.316513
     13          8           0       -2.402532   -0.928124   -0.883791
     14          1           0       -1.251027   -0.177684    2.091715
     15          1           0       -4.376046   -0.440900   -0.519490
     16          1           0       -3.511691    0.519835   -1.731929
     17          1           0       -1.232942   -2.164644    0.218824
     18          1           0       -2.689151   -1.600363    1.043586
     19          1           0       -1.114421    1.357106   -0.514708
     20          1           0       -1.259925    1.995845    1.118920
     21          1           0        1.726580   -2.335044    0.071709
     22          1           0        2.370495   -1.564449   -1.379603
     23          1           0        2.908223   -0.676974    1.494303
     24          1           0        4.072403   -1.426474    0.411691
     25          1           0        0.094642   -0.796628   -1.083190
     26          1           0        4.289470    1.109655    0.480891
     27          1           0        3.925225    0.503940   -1.134318
     28          1           0        2.452526    2.411860   -0.655341
     29          1           0        1.917334    1.657478    0.853086
     30          1           0       -3.527994    0.831111    1.276373
     31          1           0       -3.508710    2.064561    0.031370
 ---------------------------------------------------------------------

 SCF Done:  E(RM062X) =  -617.493702700     A.U. after    1 cycles

 The electronic state is 1-A.
 Alpha  occ. eigenvalues --  -19.62948 -19.62920 -19.62587 -10.63206 -10.58906
 Alpha  occ. eigenvalues --  -10.58200 -10.58093 -10.57559 -10.53341 -10.52941
 Alpha  occ. eigenvalues --  -10.52939 -10.52900 -10.52764  -1.19611  -1.16440
 Alpha  occ. eigenvalues --   -1.13125  -0.90736  -0.89499  -0.86759  -0.84568
 Alpha  occ. eigenvalues --   -0.74957  -0.74579  -0.72860  -0.70763  -0.65230
 Alpha  occ. eigenvalues --   -0.61475  -0.61285  -0.58664  -0.57015  -0.56447
 Alpha  occ. eigenvalues --   -0.54179  -0.53015  -0.52511  -0.50580  -0.49009
 Alpha  occ. eigenvalues --   -0.47573  -0.46345  -0.45645  -0.45157  -0.44914
 Alpha  occ. eigenvalues --   -0.43900  -0.42236  -0.42037  -0.40579  -0.39997
 Alpha  occ. eigenvalues --   -0.38059  -0.37571  -0.36776  -0.34360  -0.32781
 Alpha  occ. eigenvalues --   -0.31660
 Alpha virt. eigenvalues --   -0.00145   0.00747   0.00868   0.01126   0.02280
 Alpha virt. eigenvalues --    0.02470   0.02603   0.03346   0.03592   0.04392
 Alpha virt. eigenvalues --    0.04426   0.04989   0.05532   0.05739   0.07187

 Mulliken charges:
               1
     1  C   -0.114495
     2  C   -0.260452
     3  O   -0.252405
     4  C   -0.318699
     5  C   -0.162855
     6  O   -0.287336
     7  C   -0.366180
     8  C   -0.278949
     9  C   -0.211966
    10  C   -0.440509
    11  C   -0.093152
    12  C   -0.362671
    13  O   -0.288844
    14  H    0.256554
    15  H    0.174299
    16  H    0.178161
    17  H    0.196956
    18  H    0.179983
    19  H    0.202276
    20  H    0.188533
    21  H    0.165846
    22  H    0.186302
    23  H    0.179887
    24  H    0.184754
    25  H    0.322766
    26  H    0.171325
    27  H    0.162433
    28  H    0.201493
    29  H    0.148893
    30  H    0.179847
    31  H    0.158205
 Sum of Mulliken charges =  -0.00000

 Dipole moment (field-independent basis, Debye):
    X=             -0.6899    Y=              0.3285    Z=              1.8531  Tot=              2.0044
 Quadrupole moment (field-independent basis, Debye-Ang):
   XX=            -69.3645   YY=            -78.1873   ZZ=            -83.4774
   XY=             -2.6660   XZ=             -3.5646   YZ=             -0.2468

  Exact polarizability: 173.987   0.141 158.857   0.442  -0.464 149.047
 Approx polarizability: 145.801   0.316 141.469  -0.349  -0.746 142.747

                      1                      2                      3
                      A                      A                      A
 Frequencies --     26.3690                62.2095                90.4292
 Red. masses --      3.9955                 3.2601                 3.3734
 Frc consts  --      0.0016                 0.0074                 0.0163
 IR Inten    --      0.7715                 1.4829                 3.5134

                      4                      5                      6
                      A                      A                      A
 Frequencies --    115.3085               183.2431               213.5659
 Red. masses --      3.4994                 2.8214                 2.6690
 Frc consts  --      0.0274                 0.0558                 0.0717
 IR Inten    --      4.3658                 4.5236                 4.6274

                      7                      8                      9
                      A                      A                      A
 Frequencies --    240.2659               295.1996               306.9819
 Red. masses --      2.2193                 2.9112                 2.0661
 Frc consts  --      0.0755                 0.1495                 0.1147
 IR Inten    --      2.5768                 1.0033                 3.3633

                     10                     11                     12
                      A                      A                      A
 Frequencies --    357.7226               406.3801               436.1375
 Red. masses --      2.5363                 2.3813                 3.6117
 Frc consts  --      0.1912                 0.2317                 0.4048
 IR Inten    --      9.9392                12.6031                10.7558

                     13                     14                     15
                      A                      A                      A
 Frequencies --    449.1586               456.6853               532.6270
 Red. masses --      2.5675                 3.9878                 2.6355
 Frc consts  --      0.3052                 0.4900                 0.4405
 IR Inten    --      2.4041                 1.8346                 2.9938

                     16                     17                     18
                      A                      A                      A
 Frequencies --    557.0933               630.1485               663.9353
 Red. masses --      3.1186                 2.9139                 2.4759
 Frc consts  --      0.5703                 0.6817                 0.6430
 IR Inten    --     12.7665                16.5684                 9.1753

                     19                     20                     21
                      A                      A                      A
 Frequencies --    683.7514               804.7370               836.1733
 Red. masses --      2.6174                 2.4359                 1.5098
 Frc consts  --      0.7210                 0.9294                 0.6220
 IR Inten    --      0.9808                 2.6518                 6.0716

                     22                     23                     24
                      A                      A                      A
 Frequencies --    845.1124               860.4952               893.9573
 Red. masses --      3.2312                 1.8320                 2.2738
 Frc consts  --      1.3597                 0.7992                 1.0706
 IR Inten    --      6.1364                 8.9477                19.2369

                     25                     26                     27
                      A                      A                      A
 Frequencies --    901.3649               912.7487               922.8305
 Red. masses --      2.4722                 2.6148                 2.2385
 Frc consts  --      1.1834                 1.2835                 1.1232
 IR Inten    --     26.1447                 7.7918                57.6550

                     28                     29                     30
                      A                      A                      A
 Frequencies --    928.9628               959.4748               983.3923
 Red. masses --      1.7856                 1.6040                 1.9097
 Frc consts  --      0.9079                 0.8700                 1.0881
 IR Inten    --     22.6513                 6.9765                62.7275

                     31                     32                     33
                      A                      A                      A
 Frequencies --   1016.4173              1045.0501              1061.5304
 Red. masses --      2.1737                 2.1657                 1.8010
 Frc consts  --      1.3231                 1.3935                 1.1957
 IR Inten    --     54.0493                55.3848                37.2391

                     34                     35                     36
                      A                      A                      A
 Frequencies --   1064.3182              1073.7132              1090.4458
 Red. masses --      1.4930                 2.3531                 2.5869
 Frc consts  --      0.9964                 1.5984                 1.8124
 IR Inten    --     57.5645                20.7327               234.4116

                     37                     38                     39
                      A                      A                      A
 Frequencies --   1134.8642              1145.0492              1156.3625
 Red. masses --      2.6966                 4.3604                 2.3742
 Frc consts  --      2.0462                 3.3684                 1.8705
 IR Inten    --    103.4913               139.6943                33.4177

                     40                     41                     42
                      A                      A                      A
 Frequencies --   1160.1633              1185.0527              1210.3964
 Red. masses --      2.4052                 3.5209                 1.4084
 Frc consts  --      1.9074                 2.9133                 1.2157
 IR Inten    --      2.2196               152.7227                11.2011

                     43                     44                     45
                      A                      A                      A
 Frequencies --   1218.7064              1235.3884              1252.5623
 Red. masses --      1.4293                 1.6937                 1.4733
 Frc consts  --      1.2508                 1.5230                 1.3619
 IR Inten    --      9.1029                58.3831                34.5296

                     46                     47                     48
                      A                      A                      A
 Frequencies --   1286.1479              1288.0860              1317.6656
 Red. masses --      1.2133                 1.2033                 1.1477
 Frc consts  --      1.1825                 1.1763                 1.1740
 IR Inten    --     34.1181                 8.6782                 7.7576

                     49                     50                     51
                      A                      A                      A
 Frequencies --   1329.7666              1340.3906              1358.4888
 Red. masses --      1.2021                 1.3257                 1.3380
 Frc consts  --      1.2524                 1.4033                 1.4548
 IR Inten    --     20.5256                10.1359                 5.4879

                     52                     53                     54
                      A                      A                      A
 Frequencies --   1367.8177              1377.4179              1385.8309
 Red. masses --      1.5104                 1.3807                 1.4596
 Frc consts  --      1.6649                 1.5434                 1.6516
 IR Inten    --      6.4332                12.5975                 1.5270

                     55                     56                     57
                      A                      A                      A
 Frequencies --   1388.5628              1392.0420              1399.7901
 Red. masses --      1.4061                 1.4565                 1.3517
 Frc consts  --      1.5973                 1.6629                 1.5605
 IR Inten    --      0.3769                12.1233                 0.8653

                     58                     59                     60
                      A                      A                      A
 Frequencies --   1415.6968              1420.8162              1428.3231
 Red. masses --      1.3580                 1.3211                 1.3630
 Frc consts  --      1.6036                 1.5713                 1.6383
 IR Inten    --     23.4838                 6.3735                15.4692

                     61                     62                     63
                      A                      A                      A
 Frequencies --   1444.0714              1476.1091              1482.2464
 Red. masses --      1.2342                 1.1062                 1.0862
 Frc consts  --      1.5164                 1.4202                 1.4061
 IR Inten    --     11.1579                 4.5869                 8.0891

                     64                     65                     66
                      A                      A                      A
 Frequencies --   1494.5650              1495.3322              1501.2456
 Red. masses --      1.0992                 1.1058                 1.0913
 Frc consts  --      1.4466                 1.4568                 1.4491
 IR Inten    --      3.7381                12.9496                13.0782

                     67                     68                     69
                      A                      A                      A
 Frequencies --   1505.9270              1510.1386              1518.1935
 Red. masses --      1.0754                 1.0933                 1.0964
 Frc consts  --      1.4369                 1.4690                 1.4889
 IR Inten    --      6.8809                 3.9787                 6.0912

                     70                     71                     72
                      A                      A                      A
 Frequencies --   3040.2336              3042.9273              3056.5568
 Red. masses --      1.0697                 1.0679                 1.0687
 Frc consts  --      5.8255                 5.8258                 5.8828
 IR Inten    --     73.2539                65.7621                39.6287

                     73                     74                     75
                      A                      A                      A
 Frequencies --   3063.4811              3070.1279              3072.6947
 Red. masses --      1.0625                 1.0628                 1.0681
 Frc consts  --      5.8749                 5.9024                 5.9418
 IR Inten    --     45.7535                31.4323                51.0162

                     76                     77                     78
                      A                      A                      A
 Frequencies --   3075.6156              3087.7102              3093.8187
 Red. masses --      1.0620                 1.0853                 1.0599
 Frc consts  --      5.9187                 6.0966                 5.9773
 IR Inten    --     27.9955                46.4656                25.3922

                     79                     80                     81
                      A                      A                      A
 Frequencies --   3106.5855              3112.6129              3117.6510
 Red. masses --      1.0871                 1.0976                 1.1022
 Frc consts  --      6.1812                 6.2653                 6.3119
 IR Inten    --     40.6913                31.3241                66.2431

                     82                     83                     84
                      A                      A                      A
 Frequencies --   3118.7887              3127.2618              3129.0770
 Red. masses --      1.0952                 1.1037                 1.0969
 Frc consts  --      6.2764                 6.3594                 6.3278
 IR Inten    --     15.9653                42.2026                37.3333

                     85                     86                     87
                      A                      A                      A
 Frequencies --   3133.8383              3135.4913              3141.9642
 Red. masses --      1.0993                 1.0988                 1.1054
 Frc consts  --      6.3607                 6.3646                 6.4297
 IR Inten    --     43.5634                51.3416                38.2655

 - Thermochemistry -
 -------------------
 Temperature   298.150 Kelvin.  Pressure   1.00000 Atm.
 Atom     1 has atomic number  6 and mass  12.00000

 Molecular mass:   186.12559 amu.
 Principal axes and moments of inertia in atomic units:
                           1         2         3
     Eigenvalues --   966.555103896.144594220.18965
           X            0.99996  -0.00802  -0.00261
           Y            0.00803   0.99995   0.00605
           Z            0.00256  -0.00607   0.99998
 This molecule is an asymmetric top.
 Rotational symmetry number  1.
 Warning -- assumption of classical behavior for rotation
           may cause significant error
 Rotational temperatures (Kelvin)      0.08961     0.02223     0.02052
 Rotational constants (GHZ):           1.86719     0.46321     0.42764
 Zero-point vibrational energy     737244.1 (Joules/Mol)
                                  176.20557 (Kcal/Mol)
 Warning -- explicit consideration of  16 degrees of freedom as
           vibrations may cause significant error
 Vibrational temperatures:     37.94    89.51   130.11   165.90   263.65
          (Kelvin)            307.27   345.69   424.73   441.68   514.68
                              584.69   627.50   646.24   657.07   766.33
                              801.53   906.64   955.25   983.77  1157.84
                             1203.07  1215.93  1238.06  1286.21  1296.86
                             1313.24  1327.75  1336.57  1380.47  1414.88
                             1462.40  1503.59  1527.31  1531.32  1544.83
                             1568.91  1632.82  1647.47  1663.75  1669.22
                             1705.03  1741.49  1753.45  1777.45  1802.16
                             1850.48  1853.27  1895.83  1913.24  1928.52
                             1954.56  1967.98  1981.80  1993.90  1997.83
                             2002.84  2013.99  2036.87  2044.24  2055.04
                             2077.70  2123.79  2132.62  2150.35  2151.45
                             2159.96  2166.69  2172.75  2184.34  4374.22
                             4378.09  4397.70  4407.67  4417.23  4420.92
                             4425.12  4442.53  4451.32  4469.68  4478.36
                             4485.60  4487.24  4499.43  4502.04  4508.89
                             4511.27  4520.59

 Zero-point correction=                           0.280801 (Hartree/Particle)
 Thermal correction to Energy=                    0.292613
 Thermal correction to Enthalpy=                  0.293557
 Thermal correction to Gibbs Free Energy=         0.242015
 Sum of electronic and zero-point Energies=           -617.212901
 Sum of electronic and thermal Energies=              -617.201090
 Sum of electronic and thermal Enthalpies=            -617.200145
 Sum of electronic and thermal Free Energies=         -617.251687

                     E (Thermal)             CV                S
                      KCal/Mol        Cal/Mol-Kelvin    Cal/Mol-Kelvin
 Total                  183.617             46.701            108.479
 Electronic               0.000              0.000              0.000
 Translational            0.889              2.981             41.570
 Rotational               0.889              2.981             31.142
 Vibrational            181.840             40.740             35.767
 Vibration     1          0.593              1.985              6.085
 Vibration     2          0.597              1.972              4.386
 Vibration     3          0.602              1.956              3.651
 Vibration     4          0.608              1.937              3.178
 Vibration     5          0.631              1.863              2.295
 Vibration     6          0.644              1.820              2.013
 Vibration     7          0.657              1.779              1.801
 Vibration     8          0.689              1.683              1.444
 Vibration     9          0.697              1.660              1.379
 Vibration    10          0.733              1.559              1.132
 Vibration    11          0.771              1.456              0.939
 Vibration    12          0.797              1.391              0.839
 Vibration    13          0.808              1.363              0.798
 Vibration    14          0.815              1.346              0.776
 Vibration    15          0.888              1.178              0.581
 Vibration    16          0.913              1.124              0.530

 Optimization completed.
    -- Stationary point found.
 Normal termination of Gaussian 16 at Sun Nov  4 22:55:01 2018.
