 Gaussian 16, Revision A.03,
 Gaussian 16:  ES64L-G16RevA.03 25-Dec-2016

 ----------------------------------------------------------------------
 #M062X/6-311++G(2d,2p) opt=ModRedundant freq=noraman SCRF=(Solvent=Wat
 er)
 ----------------------------------------------------------------------

 -----------------------------
 D_a1-4_2SO_PSI.inp_extract_22
 -----------------------------
 Symbolic Z-matrix:
 Charge =  0 Multiplicity = 1

 SCF Done:  E(RM062X) =  -617.495401098     A.U. after   13 cycles
 SCF Done:  E(RM062X) =  -617.497185249     A.U. after   11 cycles
 SCF Done:  E(RM062X) =  -617.497352309     A.U. after   10 cycles
 SCF Done:  E(RM062X) =  -617.497393270     A.U. after   10 cycles
 SCF Done:  E(RM062X) =  -617.497401231     A.U. after    9 cycles
 SCF Done:  E(RM062X) =  -617.497403375     A.U. after    8 cycles
 SCF Done:  E(RM062X) =  -617.497403745     A.U. after    8 cycles
 SCF Done:  E(RM062X) =  -617.497403745     A.U. after    7 cycles
 Optimization completed.
    -- Stationary point found.
 Normal termination of Gaussian 16 at Sun Nov  4 21:59:24 2018.

 ----------------------------------------------------------------------
 #N Geom=AllCheck Guess=TCheck SCRF=Check GenChk RM062X/6-311++G(2d,2p)
  Freq
 ----------------------------------------------------------------------

 Structure from the checkpoint file:  "D_a1-4_2SO_PSI.inp_extract_22.chk"
 -----------------------------
 D_a1-4_2SO_PSI.inp_extract_22
 -----------------------------
 Charge =  0 Multiplicity = 1

                         Standard orientation:
 ---------------------------------------------------------------------
 Center     Atomic      Atomic             Coordinates (Angstroms)
 Number     Number       Type             X           Y           Z
 ---------------------------------------------------------------------
      1          6           0        0.906440    0.154940   -0.410295
      2          6           0        3.781436   -0.257821    0.112485
      3          8           0       -1.594734    1.306404    0.109040
      4          6           0        1.839837   -0.869882   -1.053462
      5          6           0        1.666717    0.945381    0.658511
      6          8           0       -0.209534   -0.563266    0.114263
      7          6           0       -2.247528   -0.710045    1.299704
      8          6           0       -3.101342   -1.146013    0.109848
      9          6           0       -1.120016    0.208399    0.857246
     10          6           0       -3.553428    0.086712   -0.671423
     11          6           0       -2.345037    0.927630   -1.045985
     12          6           0        3.111276    1.119770    0.196411
     13          8           0        2.834392   -1.294623   -0.141412
     14          1           0        0.548426    0.840723   -1.184010
     15          1           0        4.549631   -0.270032   -0.666367
     16          1           0        4.247048   -0.514257    1.062650
     17          1           0        1.269445   -1.748701   -1.346467
     18          1           0        2.308958   -0.447002   -1.947145
     19          1           0        1.653053    0.376527    1.590972
     20          1           0        1.190039    1.906288    0.843264
     21          1           0       -1.818900   -1.564581    1.822015
     22          1           0       -2.861048   -0.155832    2.012286
     23          1           0       -2.514273   -1.794613   -0.543119
     24          1           0       -3.958899   -1.722380    0.455278
     25          1           0       -0.623396    0.658307    1.717818
     26          1           0       -4.090853   -0.195536   -1.577221
     27          1           0       -4.228668    0.688026   -0.057823
     28          1           0       -2.636072    1.860195   -1.524191
     29          1           0       -1.699676    0.372807   -1.733743
     30          1           0        3.122962    1.612342   -0.777670
     31          1           0        3.671100    1.755179    0.880109
 ---------------------------------------------------------------------

 SCF Done:  E(RM062X) =  -617.497403745     A.U. after    1 cycles

 The electronic state is 1-A.
 Alpha  occ. eigenvalues --  -19.63138 -19.63028 -19.62816 -10.63321 -10.58739
 Alpha  occ. eigenvalues --  -10.58062 -10.58060 -10.57829 -10.53458 -10.53352
 Alpha  occ. eigenvalues --  -10.53051 -10.52972 -10.52876  -1.20113  -1.16413
 Alpha  occ. eigenvalues --   -1.13186  -0.90907  -0.89595  -0.87349  -0.84298
 Alpha  occ. eigenvalues --   -0.75316  -0.74303  -0.72763  -0.70867  -0.64854
 Alpha  occ. eigenvalues --   -0.62549  -0.60131  -0.59037  -0.58377  -0.55527
 Alpha  occ. eigenvalues --   -0.54213  -0.54028  -0.52585  -0.50019  -0.49222
 Alpha  occ. eigenvalues --   -0.48183  -0.46337  -0.45679  -0.45385  -0.45044
 Alpha  occ. eigenvalues --   -0.43585  -0.42646  -0.41969  -0.40996  -0.39369
 Alpha  occ. eigenvalues --   -0.38527  -0.37432  -0.36221  -0.34302  -0.33356
 Alpha  occ. eigenvalues --   -0.32409
 Alpha virt. eigenvalues --   -0.00144   0.00783   0.00836   0.01104   0.02220
 Alpha virt. eigenvalues --    0.02417   0.02621   0.03515   0.03581   0.04429
 Alpha virt. eigenvalues --    0.04528   0.04634   0.05600   0.05994   0.06923

 Mulliken charges:
               1
     1  C   -0.069808
     2  C   -0.278808
     3  O   -0.276077
     4  C   -0.359290
     5  C   -0.140449
     6  O   -0.268591
     7  C   -0.444074
     8  C   -0.284977
     9  C   -0.051789
    10  C   -0.410973
    11  C   -0.106673
    12  C   -0.361230
    13  O   -0.321887
    14  H    0.201339
    15  H    0.175483
    16  H    0.175862
    17  H    0.203486
    18  H    0.186977
    19  H    0.211577
    20  H    0.197628
    21  H    0.183996
    22  H    0.192235
    23  H    0.169697
    24  H    0.182961
    25  H    0.262655
    26  H    0.172450
    27  H    0.163757
    28  H    0.204390
    29  H    0.135736
    30  H    0.189155
    31  H    0.165242
 Sum of Mulliken charges =  -0.00000

 Dipole moment (field-independent basis, Debye):
    X=             -0.3603    Y=              1.7228    Z=             -0.8923  Tot=              1.9734
 Quadrupole moment (field-independent basis, Debye-Ang):
   XX=            -72.0499   YY=            -86.7880   ZZ=            -75.1084
   XY=              8.6082   XZ=              0.5978   YZ=             -0.2654

  Exact polarizability: 174.900   2.121 152.336   1.711  -0.645 155.209
 Approx polarizability: 145.719   0.527 141.443   1.100  -0.530 143.120

                      1                      2                      3
                      A                      A                      A
 Frequencies --     36.1745                65.9752                94.7732
 Red. masses --      3.7084                 3.2047                 3.6373
 Frc consts  --      0.0029                 0.0082                 0.0192
 IR Inten    --      2.1808                 0.5642                 1.9286

                      4                      5                      6
                      A                      A                      A
 Frequencies --    130.2623               174.5690               210.2677
 Red. masses --      3.1314                 3.6922                 2.3622
 Frc consts  --      0.0313                 0.0663                 0.0615
 IR Inten    --      3.7122                 3.0979                 5.7080

                      7                      8                      9
                      A                      A                      A
 Frequencies --    240.4792               272.4302               311.5317
 Red. masses --      2.9750                 2.2794                 2.3649
 Frc consts  --      0.1014                 0.0997                 0.1352
 IR Inten    --     10.6402                 2.0331                 1.9730

                     10                     11                     12
                      A                      A                      A
 Frequencies --    367.0784               403.3436               433.2116
 Red. masses --      1.9171                 2.6835                 2.4325
 Frc consts  --      0.1522                 0.2572                 0.2690
 IR Inten    --      7.2413                13.9005                 3.8880

                     13                     14                     15
                      A                      A                      A
 Frequencies --    444.5515               465.2149               538.4654
 Red. masses --      3.3272                 4.1576                 2.3554
 Frc consts  --      0.3874                 0.5302                 0.4024
 IR Inten    --      4.2799                 3.7876                 4.6642

                     16                     17                     18
                      A                      A                      A
 Frequencies --    576.8806               593.8428               666.8889
 Red. masses --      3.7236                 2.7572                 2.2793
 Frc consts  --      0.7301                 0.5729                 0.5973
 IR Inten    --      9.7877                 3.8341                11.2062

                     19                     20                     21
                      A                      A                      A
 Frequencies --    721.1713               816.4685               833.1046
 Red. masses --      2.9993                 2.1221                 1.5533
 Frc consts  --      0.9191                 0.8335                 0.6352
 IR Inten    --      1.1255                 6.2656                 0.3338

                     22                     23                     24
                      A                      A                      A
 Frequencies --    840.5386               865.1140               895.0480
 Red. masses --      3.4907                 1.8454                 2.4211
 Frc consts  --      1.4530                 0.8138                 1.1428
 IR Inten    --      8.7817                 4.4753                16.4339

                     25                     26                     27
                      A                      A                      A
 Frequencies --    910.8651               919.0962               926.2185
 Red. masses --      2.4746                 2.5592                 1.9376
 Frc consts  --      1.2097                 1.2737                 0.9793
 IR Inten    --     19.5004                 7.2296                66.5537

                     28                     29                     30
                      A                      A                      A
 Frequencies --    930.8292               955.7386               984.6984
 Red. masses --      2.0774                 1.5951                 1.9173
 Frc consts  --      1.0605                 0.8584                 1.0953
 IR Inten    --      8.5007                 7.5428                36.2304

                     31                     32                     33
                      A                      A                      A
 Frequencies --   1034.7274              1049.1333              1063.2890
 Red. masses --      2.1614                 2.4987                 1.6246
 Frc consts  --      1.3635                 1.6204                 1.0822
 IR Inten    --     10.8406               167.0984               105.3099

                     34                     35                     36
                      A                      A                      A
 Frequencies --   1067.7276              1074.7835              1080.6331
 Red. masses --      1.7964                 2.2378                 2.2815
 Frc consts  --      1.2067                 1.5230                 1.5697
 IR Inten    --      3.6938                14.1523               175.4420

                     37                     38                     39
                      A                      A                      A
 Frequencies --   1133.5597              1147.4374              1159.7531
 Red. masses --      2.3694                 4.1270                 2.5864
 Frc consts  --      1.7938                 3.2014                 2.0496
 IR Inten    --     84.9885               104.3478                14.7044

                     40                     41                     42
                      A                      A                      A
 Frequencies --   1171.9406              1184.3018              1214.6173
 Red. masses --      2.3122                 3.7346                 1.3931
 Frc consts  --      1.8710                 3.0862                 1.2109
 IR Inten    --     32.0406               181.0717                20.4790

                     43                     44                     45
                      A                      A                      A
 Frequencies --   1219.3599              1234.4841              1251.4876
 Red. masses --      1.3901                 1.6163                 1.4681
 Frc consts  --      1.2178                 1.4512                 1.3548
 IR Inten    --     12.5242                54.0708                34.6835

                     46                     47                     48
                      A                      A                      A
 Frequencies --   1289.3050              1289.9301              1322.0764
 Red. masses --      1.1998                 1.2067                 1.1503
 Frc consts  --      1.1751                 1.1830                 1.1846
 IR Inten    --     29.5817                 6.9694                 9.6935

                     49                     50                     51
                      A                      A                      A
 Frequencies --   1329.3505              1344.7593              1360.7424
 Red. masses --      1.1834                 1.2987                 1.3566
 Frc consts  --      1.2321                 1.3837                 1.4800
 IR Inten    --     14.8904                 0.9770                 8.1806

                     52                     53                     54
                      A                      A                      A
 Frequencies --   1368.9311              1376.3888              1387.4707
 Red. masses --      1.3907                 1.4814                 1.4778
 Frc consts  --      1.5355                 1.6535                 1.6761
 IR Inten    --      2.9867                 5.2991                 0.2508

                     55                     56                     57
                      A                      A                      A
 Frequencies --   1388.5973              1394.7780              1401.6338
 Red. masses --      1.2723                 1.7342                 1.2555
 Frc consts  --      1.4454                 1.9877                 1.4533
 IR Inten    --     16.1102                22.9361                 9.0063

                     58                     59                     60
                      A                      A                      A
 Frequencies --   1411.7377              1422.8299              1428.6300
 Red. masses --      1.3484                 1.3574                 1.4004
 Frc consts  --      1.5834                 1.6190                 1.6840
 IR Inten    --      7.0612                 6.7913                 7.6740

                     61                     62                     63
                      A                      A                      A
 Frequencies --   1436.3769              1474.7123              1481.7743
 Red. masses --      1.3637                 1.1039                 1.0871
 Frc consts  --      1.6577                 1.4144                 1.4063
 IR Inten    --     16.1146                 5.1638                 7.3866

                     64                     65                     66
                      A                      A                      A
 Frequencies --   1491.7773              1495.4426              1496.2055
 Red. masses --      1.0930                 1.1038                 1.1010
 Frc consts  --      1.4331                 1.4544                 1.4521
 IR Inten    --      0.9016                16.7045                 9.9447

                     67                     68                     69
                      A                      A                      A
 Frequencies --   1504.1058              1508.6117              1517.8052
 Red. masses --      1.0773                 1.0934                 1.0985
 Frc consts  --      1.4359                 1.4662                 1.4911
 IR Inten    --      6.7642                 3.5550                 3.7029

                     70                     71                     72
                      A                      A                      A
 Frequencies --   3038.9318              3041.2184              3048.9222
 Red. masses --      1.0716                 1.0698                 1.0690
 Frc consts  --      5.8306                 5.8300                 5.8551
 IR Inten    --     64.9652                40.0790                61.4908

                     73                     74                     75
                      A                      A                      A
 Frequencies --   3055.8470              3062.6431              3069.8989
 Red. masses --      1.0796                 1.0629                 1.0673
 Frc consts  --      5.9400                 5.8740                 5.9263
 IR Inten    --     79.8301                39.9656                 8.1990

                     76                     77                     78
                      A                      A                      A
 Frequencies --   3073.7625              3077.8673              3079.0381
 Red. masses --      1.0631                 1.0638                 1.0631
 Frc consts  --      5.9177                 5.9378                 5.9380
 IR Inten    --     33.2189                56.0735                21.0462

                     79                     80                     81
                      A                      A                      A
 Frequencies --   3098.4417              3112.8214              3117.1777
 Red. masses --      1.0845                 1.0983                 1.0956
 Frc consts  --      6.1341                 6.2703                 6.2725
 IR Inten    --     80.9626                35.8461                15.3070

                     82                     83                     84
                      A                      A                      A
 Frequencies --   3119.6930              3130.1895              3133.3436
 Red. masses --      1.1021                 1.1035                 1.1013
 Frc consts  --      6.3194                 6.3702                 6.3703
 IR Inten    --     60.3032                38.3839                33.0905

                     85                     86                     87
                      A                      A                      A
 Frequencies --   3134.7169              3134.8658              3140.9887
 Red. masses --      1.0979                 1.0987                 1.0967
 Frc consts  --      6.3563                 6.3618                 6.3747
 IR Inten    --     54.9895                59.4596                17.8565

 - Thermochemistry -
 -------------------
 Temperature   298.150 Kelvin.  Pressure   1.00000 Atm.
 Atom     1 has atomic number  6 and mass  12.00000

 Molecular mass:   186.12559 amu.
 Principal axes and moments of inertia in atomic units:
                           1         2         3
     Eigenvalues --   916.089094302.626304492.20297
           X            0.99988   0.01539   0.00195
           Y           -0.01537   0.99980  -0.01255
           Z           -0.00214   0.01252   0.99992
 This molecule is an asymmetric top.
 Rotational symmetry number  1.
 Warning -- assumption of classical behavior for rotation
           may cause significant error
 Rotational temperatures (Kelvin)      0.09455     0.02013     0.01928
 Rotational constants (GHZ):           1.97005     0.41945     0.40175
 Zero-point vibrational energy     737536.1 (Joules/Mol)
                                  176.27536 (Kcal/Mol)
 Warning -- explicit consideration of  17 degrees of freedom as
           vibrations may cause significant error
 Vibrational temperatures:     52.05    94.92   136.36   187.42   251.17
          (Kelvin)            302.53   346.00   391.97   448.22   528.14
                              580.32   623.29   639.61   669.34   774.73
                              830.00   854.41   959.50  1037.60  1174.72
                             1198.65  1209.35  1244.71  1287.77  1310.53
                             1322.37  1332.62  1339.26  1375.09  1416.76
                             1488.74  1509.47  1529.84  1536.22  1546.37
                             1554.79  1630.94  1650.91  1668.63  1686.16
                             1703.95  1747.56  1754.39  1776.15  1800.61
                             1855.02  1855.92  1902.17  1912.64  1934.81
                             1957.80  1969.59  1980.32  1996.26  1997.88
                             2006.77  2016.64  2031.18  2047.13  2055.48
                             2066.63  2121.78  2131.94  2146.33  2151.61
                             2152.71  2164.07  2170.56  2183.78  4372.35
                             4375.63  4386.72  4396.68  4406.46  4416.90
                             4422.46  4428.36  4430.05  4457.97  4478.66
                             4484.92  4488.54  4503.64  4508.18  4510.16
                             4510.37  4519.18

 Zero-point correction=                           0.280913 (Hartree/Particle)
 Thermal correction to Energy=                    0.292671
 Thermal correction to Enthalpy=                  0.293616
 Thermal correction to Gibbs Free Energy=         0.242469
 Sum of electronic and zero-point Energies=           -617.216491
 Sum of electronic and thermal Energies=              -617.204732
 Sum of electronic and thermal Enthalpies=            -617.203788
 Sum of electronic and thermal Free Energies=         -617.254935

                     E (Thermal)             CV                S
                      KCal/Mol        Cal/Mol-Kelvin    Cal/Mol-Kelvin
 Total                  183.654             46.580            107.648
 Electronic               0.000              0.000              0.000
 Translational            0.889              2.981             41.570
 Rotational               0.889              2.981             31.249
 Vibrational            181.877             40.619             34.829
 Vibration     1          0.594              1.982              5.458
 Vibration     2          0.597              1.971              4.270
 Vibration     3          0.603              1.953              3.559
 Vibration     4          0.612              1.923              2.942
 Vibration     5          0.627              1.874              2.386
 Vibration     6          0.642              1.825              2.041
 Vibration     7          0.658              1.778              1.799
 Vibration     8          0.675              1.724              1.581
 Vibration     9          0.700              1.652              1.354
 Vibration    10          0.740              1.540              1.092
 Vibration    11          0.769              1.463              0.950
 Vibration    12          0.794              1.398              0.848
 Vibration    13          0.804              1.373              0.812
 Vibration    14          0.823              1.327              0.751
 Vibration    15          0.894              1.165              0.569
 Vibration    16          0.933              1.081              0.491
 Vibration    17          0.951              1.045              0.460

 Optimization completed.
    -- Stationary point found.
 Normal termination of Gaussian 16 at Sun Nov  4 22:56:17 2018.
