 Gaussian 16, Revision A.03,
 Gaussian 16:  ES64L-G16RevA.03 25-Dec-2016

 ----------------------------------------------------------------------
 #M062X/6-311++G(2d,2p) opt=ModRedundant freq=noraman SCRF=(Solvent=Wat
 er)
 ----------------------------------------------------------------------

 -----------------------------
 D_a1-4_2SO_PSI.inp_extract_16
 -----------------------------
 Symbolic Z-matrix:
 Charge =  0 Multiplicity = 1

 SCF Done:  E(RM062X) =  -617.489772827     A.U. after   12 cycles
 SCF Done:  E(RM062X) =  -617.491399330     A.U. after   12 cycles
 SCF Done:  E(RM062X) =  -617.491828942     A.U. after   11 cycles
 SCF Done:  E(RM062X) =  -617.492011961     A.U. after   10 cycles
 SCF Done:  E(RM062X) =  -617.492028366     A.U. after    9 cycles
 SCF Done:  E(RM062X) =  -617.492030772     A.U. after    9 cycles
 SCF Done:  E(RM062X) =  -617.492031546     A.U. after    8 cycles
 SCF Done:  E(RM062X) =  -617.492031835     A.U. after    8 cycles
 Optimization completed.
    -- Stationary point found.
 Normal termination of Gaussian 16 at Sun Nov  4 22:00:34 2018.

 ----------------------------------------------------------------------
 #N Geom=AllCheck Guess=TCheck SCRF=Check GenChk RM062X/6-311++G(2d,2p)
  Freq
 ----------------------------------------------------------------------

 Structure from the checkpoint file:  "D_a1-4_2SO_PSI.inp_extract_16.chk"
 -----------------------------
 D_a1-4_2SO_PSI.inp_extract_16
 -----------------------------
 Charge =  0 Multiplicity = 1

                         Standard orientation:
 ---------------------------------------------------------------------
 Center     Atomic      Atomic             Coordinates (Angstroms)
 Number     Number       Type             X           Y           Z
 ---------------------------------------------------------------------
      1          6           0       -1.028519   -0.070894    0.926695
      2          6           0       -3.553672    0.035661   -0.604201
      3          8           0        1.317640    0.954408   -0.789377
      4          6           0       -1.996972   -1.228418    0.608090
      5          6           0       -1.460068    1.162654    0.131235
      6          8           0        0.326989   -0.489307    0.750698
      7          6           0        2.070458   -1.338620   -0.595418
      8          6           0        3.195231   -0.903114    0.342857
      9          6           0        0.900085   -0.368435   -0.524958
     10          6           0        3.569524    0.548111    0.045667
     11          6           0        2.327423    1.421993    0.104319
     12          6           0       -2.985624    1.227165    0.180224
     13          8           0       -2.631659   -1.051126   -0.645140
     14          1           0       -1.100567    0.152669    1.991775
     15          1           0       -4.497740   -0.305592   -0.168918
     16          1           0       -3.729066    0.308822   -1.643238
     17          1           0       -1.439774   -2.161559    0.557393
     18          1           0       -2.753884   -1.318827    1.394554
     19          1           0       -1.143538    1.080994   -0.906465
     20          1           0       -0.999316    2.058490    0.543574
     21          1           0        1.712622   -2.339741   -0.358085
     22          1           0        2.432265   -1.345100   -1.625313
     23          1           0        2.860964   -0.988571    1.378687
     24          1           0        4.057844   -1.558075    0.224492
     25          1           0        0.162232   -0.593877   -1.297365
     26          1           0        4.307028    0.919585    0.757869
     27          1           0        4.006958    0.619085   -0.953237
     28          1           0        2.541312    2.443014   -0.204072
     29          1           0        1.927286    1.444947    1.121745
     30          1           0       -3.320938    1.198536    1.218853
     31          1           0       -3.354639    2.156778   -0.248757
 ---------------------------------------------------------------------

 SCF Done:  E(RM062X) =  -617.492031835     A.U. after    1 cycles

 The electronic state is 1-A.
 Alpha  occ. eigenvalues --  -19.62861 -19.62802 -19.62600 -10.63293 -10.58936
 Alpha  occ. eigenvalues --  -10.58030 -10.57869 -10.57588 -10.53332 -10.53150
 Alpha  occ. eigenvalues --  -10.52931 -10.52888 -10.52763  -1.19648  -1.16363
 Alpha  occ. eigenvalues --   -1.13052  -0.90795  -0.89468  -0.86940  -0.84304
 Alpha  occ. eigenvalues --   -0.74906  -0.74561  -0.72760  -0.70731  -0.65157
 Alpha  occ. eigenvalues --   -0.61584  -0.60893  -0.58699  -0.57421  -0.55921
 Alpha  occ. eigenvalues --   -0.54186  -0.53378  -0.52396  -0.50521  -0.49079
 Alpha  occ. eigenvalues --   -0.48118  -0.45983  -0.45536  -0.45080  -0.44606
 Alpha  occ. eigenvalues --   -0.44074  -0.42089  -0.41972  -0.40254  -0.39658
 Alpha  occ. eigenvalues --   -0.38090  -0.37667  -0.36040  -0.35294  -0.32979
 Alpha  occ. eigenvalues --   -0.31310
 Alpha virt. eigenvalues --   -0.00144   0.00734   0.00829   0.01168   0.02236
 Alpha virt. eigenvalues --    0.02470   0.02604   0.03276   0.03691   0.04368
 Alpha virt. eigenvalues --    0.04430   0.04926   0.05493   0.05794   0.07092

 Mulliken charges:
               1
     1  C   -0.269071
     2  C   -0.265514
     3  O   -0.234225
     4  C   -0.220472
     5  C   -0.085819
     6  O   -0.285174
     7  C   -0.536767
     8  C   -0.258549
     9  C   -0.024148
    10  C   -0.439131
    11  C   -0.076469
    12  C   -0.410721
    13  O   -0.289445
    14  H    0.243365
    15  H    0.173140
    16  H    0.180843
    17  H    0.186307
    18  H    0.177645
    19  H    0.222113
    20  H    0.196635
    21  H    0.171150
    22  H    0.194837
    23  H    0.174987
    24  H    0.185363
    25  H    0.272591
    26  H    0.172886
    27  H    0.160394
    28  H    0.198683
    29  H    0.146690
    30  H    0.181870
    31  H    0.156007
 Sum of Mulliken charges =  -0.00000

 Dipole moment (field-independent basis, Debye):
    X=             -0.2883    Y=              1.0051    Z=              1.6259  Tot=              1.9331
 Quadrupole moment (field-independent basis, Debye-Ang):
   XX=            -71.0641   YY=            -80.2760   ZZ=            -81.3603
   XY=             -4.4201   XZ=             -2.8158   YZ=              0.6278

  Exact polarizability: 174.262  -0.435 158.767   0.672  -0.030 149.523
 Approx polarizability: 145.635  -0.322 141.679   0.049  -0.498 143.172

 ******    1 imaginary frequencies (negative Signs) ******

                      1                      2                      3
                      A                      A                      A
 Frequencies --    -23.3417                46.9105                80.5321
 Red. masses --      3.7621                 3.6619                 3.2357
 Frc consts  --      0.0012                 0.0047                 0.0124
 IR Inten    --      2.8073                 1.2272                 2.2016

                      4                      5                      6
                      A                      A                      A
 Frequencies --    111.9206               173.4857               221.6014
 Red. masses --      3.5668                 2.7469                 2.5606
 Frc consts  --      0.0263                 0.0487                 0.0741
 IR Inten    --      4.6483                 2.7842                 3.1151

                      7                      8                      9
                      A                      A                      A
 Frequencies --    245.2540               272.1981               311.6325
 Red. masses --      2.4440                 2.6887                 2.2041
 Frc consts  --      0.0866                 0.1174                 0.1261
 IR Inten    --      5.3411                 0.0439                 1.6372

                     10                     11                     12
                      A                      A                      A
 Frequencies --    359.3519               399.4633               439.5023
 Red. masses --      2.3929                 2.3601                 3.3746
 Frc consts  --      0.1821                 0.2219                 0.3841
 IR Inten    --      6.7303                22.1409                 7.1261

                     13                     14                     15
                      A                      A                      A
 Frequencies --    447.1311               458.6689               533.3909
 Red. masses --      2.5449                 4.1050                 2.4553
 Frc consts  --      0.2998                 0.5088                 0.4116
 IR Inten    --      0.3852                 2.6648                 4.5766

                     16                     17                     18
                      A                      A                      A
 Frequencies --    568.4193               639.5551               656.6310
 Red. masses --      3.1454                 3.4965                 2.3105
 Frc consts  --      0.5988                 0.8426                 0.5870
 IR Inten    --      7.8181                13.8108                14.8739

                     19                     20                     21
                      A                      A                      A
 Frequencies --    683.1551               802.1353               834.1584
 Red. masses --      2.6610                 2.4021                 1.5291
 Frc consts  --      0.7317                 0.9106                 0.6269
 IR Inten    --      0.6182                 0.9830                 3.0312

                     22                     23                     24
                      A                      A                      A
 Frequencies --    842.1782               859.6790               892.7940
 Red. masses --      3.2707                 1.7675                 2.3442
 Frc consts  --      1.3668                 0.7696                 1.1009
 IR Inten    --      9.7133                 6.7251                19.4411

                     25                     26                     27
                      A                      A                      A
 Frequencies --    907.2237               914.5997               921.5087
 Red. masses --      2.4315                 2.6402                 2.3011
 Frc consts  --      1.1791                 1.3012                 1.1513
 IR Inten    --     33.1427                 9.4914                53.7067

                     28                     29                     30
                      A                      A                      A
 Frequencies --    928.2513               967.0467               980.3221
 Red. masses --      1.7844                 1.5891                 1.8854
 Frc consts  --      0.9059                 0.8756                 1.0676
 IR Inten    --     23.1494                 5.1142                41.1432

                     31                     32                     33
                      A                      A                      A
 Frequencies --   1023.5871              1044.9147              1060.7195
 Red. masses --      2.1071                 2.3134                 1.8055
 Frc consts  --      1.3007                 1.4882                 1.1969
 IR Inten    --     52.9054                51.4809                59.7854

                     34                     35                     36
                      A                      A                      A
 Frequencies --   1063.2032              1073.6054              1086.5832
 Red. masses --      1.5359                 2.2409                 2.5825
 Frc consts  --      1.0230                 1.5218                 1.7965
 IR Inten    --     41.9514                15.0572               242.9288

                     37                     38                     39
                      A                      A                      A
 Frequencies --   1130.2787              1144.8730              1153.6587
 Red. masses --      2.7594                 4.4763                 2.2099
 Frc consts  --      2.0770                 3.4569                 1.7329
 IR Inten    --    116.1129               117.4631                33.8323

                     40                     41                     42
                      A                      A                      A
 Frequencies --   1162.9590              1183.2255              1209.0901
 Red. masses --      2.5778                 3.6079                 1.4074
 Frc consts  --      2.0541                 2.9760                 1.2123
 IR Inten    --     32.7088               153.8545                17.3722

                     43                     44                     45
                      A                      A                      A
 Frequencies --   1222.0222              1233.2123              1254.3071
 Red. masses --      1.4487                 1.6563                 1.4468
 Frc consts  --      1.2746                 1.4841                 1.3411
 IR Inten    --      7.3930                50.2434                34.8151

                     46                     47                     48
                      A                      A                      A
 Frequencies --   1285.8491              1287.2793              1318.8154
 Red. masses --      1.2127                 1.2091                 1.1515
 Frc consts  --      1.1814                 1.1805                 1.1800
 IR Inten    --     11.3098                24.1865                 8.1804

                     49                     50                     51
                      A                      A                      A
 Frequencies --   1329.5902              1340.9598              1359.6576
 Red. masses --      1.2118                 1.3265                 1.3670
 Frc consts  --      1.2621                 1.4054                 1.4889
 IR Inten    --     30.6645                 8.2058                 0.9768

                     52                     53                     54
                      A                      A                      A
 Frequencies --   1363.9802              1379.1827              1385.1722
 Red. masses --      1.4799                 1.3785                 1.4364
 Frc consts  --      1.6222                 1.5449                 1.6238
 IR Inten    --      5.5654                 9.0352                 0.0390

                     55                     56                     57
                      A                      A                      A
 Frequencies --   1385.9863              1390.8939              1397.3378
 Red. masses --      1.3299                 1.4027                 1.3155
 Frc consts  --      1.5052                 1.5989                 1.5134
 IR Inten    --      2.6792                 9.9901                16.7527

                     58                     59                     60
                      A                      A                      A
 Frequencies --   1414.4036              1418.0767              1423.9908
 Red. masses --      1.3733                 1.3232                 1.3325
 Frc consts  --      1.6187                 1.5677                 1.5919
 IR Inten    --     17.6150                 6.1236                 6.5199

                     61                     62                     63
                      A                      A                      A
 Frequencies --   1433.7785              1475.5702              1481.7827
 Red. masses --      1.3519                 1.1059                 1.0863
 Frc consts  --      1.6374                 1.4187                 1.4053
 IR Inten    --     25.1728                 4.4575                 7.9051

                     64                     65                     66
                      A                      A                      A
 Frequencies --   1488.7418              1495.3407              1497.0437
 Red. masses --      1.1080                 1.1072                 1.0925
 Frc consts  --      1.4469                 1.4587                 1.4426
 IR Inten    --      3.7119                11.0602                14.1228

                     67                     68                     69
                      A                      A                      A
 Frequencies --   1502.8272              1508.1872              1516.7129
 Red. masses --      1.0784                 1.0942                 1.0987
 Frc consts  --      1.4350                 1.4664                 1.4892
 IR Inten    --      6.1092                 3.7743                 3.9551

                     70                     71                     72
                      A                      A                      A
 Frequencies --   3033.8390              3039.9862              3055.5086
 Red. masses --      1.0698                 1.0681                 1.0688
 Frc consts  --      5.8016                 5.8160                 5.8794
 IR Inten    --     67.9918                82.7915                44.6483

                     73                     74                     75
                      A                      A                      A
 Frequencies --   3063.0172              3071.6651              3074.2202
 Red. masses --      1.0623                 1.0642                 1.0677
 Frc consts  --      5.8724                 5.9158                 5.9454
 IR Inten    --     47.9450                32.4315                44.6903

                     76                     77                     78
                      A                      A                      A
 Frequencies --   3075.0274              3085.1392              3089.8251
 Red. masses --      1.0672                 1.0801                 1.0857
 Frc consts  --      5.9457                 6.0569                 6.1069
 IR Inten    --     11.4810                81.2704                40.0327

                     79                     80                     81
                      A                      A                      A
 Frequencies --   3103.1135              3112.3671              3118.4203
 Red. masses --      1.0621                 1.0979                 1.1022
 Frc consts  --      6.0255                 6.2659                 6.3153
 IR Inten    --     19.3004                41.1355                67.6801

                     82                     83                     84
                      A                      A                      A
 Frequencies --   3118.6860              3129.5216              3133.6865
 Red. masses --      1.0949                 1.1035                 1.0989
 Frc consts  --      6.2741                 6.3674                 6.3583
 IR Inten    --     13.5738                42.7180                42.0467

                     85                     86                     87
                      A                      A                      A
 Frequencies --   3135.1918              3137.6572              3151.4910
 Red. masses --      1.0977                 1.0974                 1.1039
 Frc consts  --      6.3573                 6.3655                 6.4596
 IR Inten    --     69.4119                17.9863                38.1216

 - Thermochemistry -
 -------------------
 Temperature   298.150 Kelvin.  Pressure   1.00000 Atm.
 Atom     1 has atomic number  6 and mass  12.00000

 Molecular mass:   186.12559 amu.
 Principal axes and moments of inertia in atomic units:
                           1         2         3
     Eigenvalues --   940.645653967.542714369.53538
           X            0.99995  -0.01024  -0.00163
           Y            0.01026   0.99989   0.01063
           Z            0.00152  -0.01065   0.99994
 This molecule is an asymmetric top.
 Rotational symmetry number  1.
 Warning -- assumption of classical behavior for rotation
           may cause significant error
 Rotational temperatures (Kelvin)      0.09208     0.02183     0.01982
 Rotational constants (GHZ):           1.91862     0.45488     0.41303
    1 imaginary frequencies ignored.
 Zero-point vibrational energy     736627.3 (Joules/Mol)
                                  176.05815 (Kcal/Mol)
 Warning -- explicit consideration of  15 degrees of freedom as
           vibrations may cause significant error
 Vibrational temperatures:     67.49   115.87   161.03   249.61   318.83
          (Kelvin)            352.87   391.63   448.37   517.03   574.74
                              632.35   643.32   659.92   767.43   817.83
                              920.18   944.75   982.91  1154.09  1200.17
                             1211.71  1236.89  1284.53  1305.29  1315.91
                             1325.85  1335.55  1391.36  1410.46  1472.71
                             1503.40  1526.14  1529.71  1544.68  1563.35
                             1626.22  1647.22  1659.86  1673.24  1702.40
                             1739.61  1758.22  1774.32  1804.67  1850.05
                             1852.11  1897.48  1912.98  1929.34  1956.24
                             1962.46  1984.34  1992.95  1994.13  2001.19
                             2010.46  2035.01  2040.30  2048.81  2062.89
                             2123.02  2131.95  2141.97  2151.46  2153.91
                             2162.23  2169.95  2182.21  4365.02  4373.86
                             4396.20  4407.00  4419.44  4423.12  4424.28
                             4438.83  4445.57  4464.69  4478.00  4486.71
                             4487.09  4502.68  4508.68  4510.84  4514.39
                             4534.29

 Zero-point correction=                           0.280567 (Hartree/Particle)
 Thermal correction to Energy=                    0.291566
 Thermal correction to Enthalpy=                  0.292511
 Thermal correction to Gibbs Free Energy=         0.243402
 Sum of electronic and zero-point Energies=           -617.211465
 Sum of electronic and thermal Energies=              -617.200465
 Sum of electronic and thermal Enthalpies=            -617.199521
 Sum of electronic and thermal Free Energies=         -617.248630

                     E (Thermal)             CV                S
                      KCal/Mol        Cal/Mol-Kelvin    Cal/Mol-Kelvin
 Total                  182.961             44.749            103.359
 Electronic               0.000              0.000              0.000
 Translational            0.889              2.981             41.570
 Rotational               0.889              2.981             31.167
 Vibrational            181.183             38.787             30.621
 Vibration     1          0.595              1.979              4.944
 Vibration     2          0.600              1.962              3.878
 Vibration     3          0.607              1.940              3.235
 Vibration     4          0.627              1.875              2.397
 Vibration     5          0.648              1.808              1.946
 Vibration     6          0.660              1.771              1.764
 Vibration     7          0.675              1.725              1.582
 Vibration     8          0.700              1.652              1.354
 Vibration     9          0.734              1.556              1.125
 Vibration    10          0.766              1.471              0.965
 Vibration    11          0.800              1.384              0.828
 Vibration    12          0.806              1.367              0.804
 Vibration    13          0.817              1.342              0.770
 Vibration    14          0.888              1.176              0.580
 Vibration    15          0.924              1.100              0.507

                           ! Non-Optimized Parameters !
 Normal termination of Gaussian 16 at Sun Nov  4 22:53:00 2018.
