 Gaussian 16, Revision A.03,
 Gaussian 16:  ES64L-G16RevA.03 25-Dec-2016

 ----------------------------------------------------------------------
 #M062X/6-311++G(2d,2p) opt=ModRedundant freq=noraman SCRF=(Solvent=Wat
 er)
 ----------------------------------------------------------------------

 ----------------------------
 D_a1-4_2SO_PSI.inp_extract_8
 ----------------------------
 Symbolic Z-matrix:
 Charge =  0 Multiplicity = 1

 SCF Done:  E(RM062X) =  -617.490447785     A.U. after   12 cycles
 SCF Done:  E(RM062X) =  -617.491815788     A.U. after   11 cycles
 SCF Done:  E(RM062X) =  -617.492206907     A.U. after   11 cycles
 SCF Done:  E(RM062X) =  -617.492445082     A.U. after   10 cycles
 SCF Done:  E(RM062X) =  -617.492471317     A.U. after    9 cycles
 SCF Done:  E(RM062X) =  -617.492474288     A.U. after    9 cycles
 SCF Done:  E(RM062X) =  -617.492474675     A.U. after    8 cycles
 SCF Done:  E(RM062X) =  -617.492474755     A.U. after    8 cycles
 Optimization completed.
    -- Stationary point found.
 Normal termination of Gaussian 16 at Sun Nov  4 22:01:07 2018.

 ----------------------------------------------------------------------
 #N Geom=AllCheck Guess=TCheck SCRF=Check GenChk RM062X/6-311++G(2d,2p)
  Freq
 ----------------------------------------------------------------------

 Structure from the checkpoint file:  "D_a1-4_2SO_PSI.inp_extract_8.chk"
 ----------------------------
 D_a1-4_2SO_PSI.inp_extract_8
 ----------------------------
 Charge =  0 Multiplicity = 1

                         Standard orientation:
 ---------------------------------------------------------------------
 Center     Atomic      Atomic             Coordinates (Angstroms)
 Number     Number       Type             X           Y           Z
 ---------------------------------------------------------------------
      1          6           0        1.090735   -1.009817    0.351341
      2          6           0        3.228926    0.943362   -0.309788
      3          8           0       -1.271810    0.928772    0.841245
      4          6           0        1.582047    0.185152    1.180703
      5          6           0        1.881018   -1.044450   -0.958004
      6          8           0       -0.291016   -0.999768   -0.019872
      7          6           0       -2.581910   -1.085980    0.553759
      8          6           0       -3.084774   -0.580172   -0.797637
      9          6           0       -1.225016   -0.482433    0.887038
     10          6           0       -3.062771    0.947425   -0.808139
     11          6           0       -1.677562    1.442882   -0.427307
     12          6           0        3.298319   -0.531136   -0.727131
     13          8           0        2.000620    1.250407    0.348838
     14          1           0        1.270207   -1.916676    0.938123
     15          1           0        4.066217    1.203289    0.344703
     16          1           0        3.260401    1.589246   -1.185897
     17          1           0        0.813757    0.574601    1.839643
     18          1           0        2.418980   -0.151576    1.801519
     19          1           0        1.368120   -0.389286   -1.664197
     20          1           0        1.878928   -2.049313   -1.376691
     21          1           0       -2.499050   -2.171845    0.571744
     22          1           0       -3.277614   -0.787803    1.340321
     23          1           0       -2.439497   -0.958980   -1.592677
     24          1           0       -4.089754   -0.955331   -0.988287
     25          1           0       -0.936119   -0.722797    1.912840
     26          1           0       -3.329510    1.339317   -1.790184
     27          1           0       -3.789060    1.332470   -0.088094
     28          1           0       -1.652234    2.525616   -0.325819
     29          1           0       -0.946874    1.148904   -1.185744
     30          1           0        3.784815   -1.128255    0.045954
     31          1           0        3.901862   -0.625864   -1.627953
 ---------------------------------------------------------------------

 SCF Done:  E(RM062X) =  -617.492474755     A.U. after    1 cycles

 The electronic state is 1-A.
 Alpha  occ. eigenvalues --  -19.62920 -19.62656 -19.62648 -10.63417 -10.58953
 Alpha  occ. eigenvalues --  -10.57970 -10.57853 -10.57560 -10.53319 -10.53186
 Alpha  occ. eigenvalues --  -10.52972 -10.52906 -10.52753  -1.19741  -1.16145
 Alpha  occ. eigenvalues --   -1.13109  -0.90883  -0.89626  -0.86658  -0.84483
 Alpha  occ. eigenvalues --   -0.75454  -0.73960  -0.72718  -0.70914  -0.64568
 Alpha  occ. eigenvalues --   -0.61992  -0.60505  -0.59203  -0.57784  -0.56298
 Alpha  occ. eigenvalues --   -0.54118  -0.52932  -0.52508  -0.49947  -0.49306
 Alpha  occ. eigenvalues --   -0.48237  -0.46762  -0.45398  -0.45054  -0.44057
 Alpha  occ. eigenvalues --   -0.43736  -0.42408  -0.41579  -0.40586  -0.39729
 Alpha  occ. eigenvalues --   -0.38305  -0.37139  -0.36255  -0.34756  -0.32952
 Alpha  occ. eigenvalues --   -0.31801
 Alpha virt. eigenvalues --   -0.00136   0.00772   0.00795   0.01118   0.02268
 Alpha virt. eigenvalues --    0.02498   0.02610   0.03317   0.03345   0.04529
 Alpha virt. eigenvalues --    0.04620   0.04847   0.05629   0.05682   0.06960

 Mulliken charges:
               1
     1  C   -0.170612
     2  C   -0.257208
     3  O   -0.249282
     4  C   -0.450858
     5  C   -0.127805
     6  O   -0.264407
     7  C   -0.509116
     8  C   -0.284056
     9  C    0.004096
    10  C   -0.408835
    11  C   -0.102860
    12  C   -0.276493
    13  O   -0.289141
    14  H    0.239084
    15  H    0.169239
    16  H    0.175241
    17  H    0.259043
    18  H    0.181877
    19  H    0.181469
    20  H    0.189213
    21  H    0.185713
    22  H    0.196250
    23  H    0.170506
    24  H    0.185505
    25  H    0.222273
    26  H    0.172177
    27  H    0.160168
    28  H    0.202416
    29  H    0.147264
    30  H    0.184113
    31  H    0.165027
 Sum of Mulliken charges =  -0.00000

 Dipole moment (field-independent basis, Debye):
    X=              0.9367    Y=             -2.1910    Z=             -0.3589  Tot=              2.4097
 Quadrupole moment (field-independent basis, Debye-Ang):
   XX=            -68.7590   YY=            -83.1244   ZZ=            -77.8020
   XY=             -2.9194   XZ=              0.0642   YZ=             -5.1186

  Exact polarizability: 172.171   0.625 157.296  -0.731  -2.991 154.453
 Approx polarizability: 145.554  -1.382 142.415  -0.814  -1.818 143.328

                      1                      2                      3
                      A                      A                      A
 Frequencies --     26.4802                50.5194                99.2840
 Red. masses --      3.9348                 3.4065                 3.3625
 Frc consts  --      0.0016                 0.0051                 0.0195
 IR Inten    --      1.8907                 0.6007                 1.0151

                      4                      5                      6
                      A                      A                      A
 Frequencies --    132.1867               184.2935               206.9316
 Red. masses --      3.4324                 3.7891                 2.4645
 Frc consts  --      0.0353                 0.0758                 0.0622
 IR Inten    --      4.6851                 3.8336                 5.6783

                      7                      8                      9
                      A                      A                      A
 Frequencies --    237.8230               288.0716               312.5210
 Red. masses --      2.2394                 2.6528                 3.0800
 Frc consts  --      0.0746                 0.1297                 0.1772
 IR Inten    --      5.2897                 4.5908                 8.0074

                     10                     11                     12
                      A                      A                      A
 Frequencies --    355.0037               400.0196               434.0886
 Red. masses --      2.0029                 2.8907                 2.5136
 Frc consts  --      0.1487                 0.2725                 0.2791
 IR Inten    --      5.2102                 5.8897                 1.3657

                     13                     14                     15
                      A                      A                      A
 Frequencies --    454.9457               466.2758               532.7294
 Red. masses --      3.3481                 2.5439                 2.3389
 Frc consts  --      0.4083                 0.3259                 0.3911
 IR Inten    --      3.7018                 7.5909                 4.5804

                     16                     17                     18
                      A                      A                      A
 Frequencies --    572.4707               599.3734               667.4862
 Red. masses --      3.4073                 2.6062                 2.5637
 Frc consts  --      0.6579                 0.5516                 0.6730
 IR Inten    --      3.7951                16.5056                15.9155

                     19                     20                     21
                      A                      A                      A
 Frequencies --    695.2347               814.7880               835.2839
 Red. masses --      2.8794                 2.3285                 1.6159
 Frc consts  --      0.8200                 0.9108                 0.6643
 IR Inten    --      3.9405                 9.8300                 1.8164

                     22                     23                     24
                      A                      A                      A
 Frequencies --    842.5006               857.5013               893.1416
 Red. masses --      3.1913                 1.8280                 2.3556
 Frc consts  --      1.3346                 0.7919                 1.1071
 IR Inten    --      8.7942                 4.9633                32.8672

                     25                     26                     27
                      A                      A                      A
 Frequencies --    906.8018               916.4908               920.4047
 Red. masses --      2.4696                 2.2846                 2.4695
 Frc consts  --      1.1965                 1.1306                 1.2326
 IR Inten    --     11.4213                41.1885                13.5747

                     28                     29                     30
                      A                      A                      A
 Frequencies --    930.8321               944.8532               994.9581
 Red. masses --      1.7924                 1.6446                 1.8932
 Frc consts  --      0.9150                 0.8650                 1.1042
 IR Inten    --      9.7383                12.3431                18.8140

                     31                     32                     33
                      A                      A                      A
 Frequencies --   1023.3654              1045.0205              1063.4490
 Red. masses --      2.2055                 2.3628                 1.5608
 Frc consts  --      1.3608                 1.5203                 1.0400
 IR Inten    --     88.7811                72.6101                46.2287

                     34                     35                     36
                      A                      A                      A
 Frequencies --   1068.3389              1072.4322              1078.6764
 Red. masses --      1.7462                 2.1256                 2.3250
 Frc consts  --      1.1742                 1.4403                 1.5939
 IR Inten    --     20.4187                20.3491               197.1327

                     37                     38                     39
                      A                      A                      A
 Frequencies --   1133.4337              1143.9596              1146.8897
 Red. masses --      2.2316                 2.9300                 3.3766
 Frc consts  --      1.6891                 2.2592                 2.6169
 IR Inten    --     81.9100               103.9689               136.2297

                     40                     41                     42
                      A                      A                      A
 Frequencies --   1177.5143              1187.4230              1210.5781
 Red. masses --      2.7558                 3.9641                 1.4138
 Frc consts  --      2.2513                 3.2931                 1.2207
 IR Inten    --     57.6929               130.7391                17.6909

                     43                     44                     45
                      A                      A                      A
 Frequencies --   1222.8547              1233.5050              1254.9804
 Red. masses --      1.4097                 1.6139                 1.4642
 Frc consts  --      1.2420                 1.4468                 1.3587
 IR Inten    --     10.3492                44.6958                39.6879

                     46                     47                     48
                      A                      A                      A
 Frequencies --   1287.1326              1291.9340              1316.3629
 Red. masses --      1.2187                 1.2017                 1.1486
 Frc consts  --      1.1896                 1.1818                 1.1727
 IR Inten    --     21.4499                12.3126                 9.5076

                     49                     50                     51
                      A                      A                      A
 Frequencies --   1332.3231              1341.4708              1360.3209
 Red. masses --      1.2021                 1.2492                 1.3426
 Frc consts  --      1.2572                 1.3245                 1.4638
 IR Inten    --      4.6559                12.9172                21.8103

                     52                     53                     54
                      A                      A                      A
 Frequencies --   1368.9289              1376.1084              1383.8416
 Red. masses --      1.4406                 1.3578                 1.4026
 Frc consts  --      1.5906                 1.5149                 1.5826
 IR Inten    --     25.2887                 0.7869                 8.3873

                     55                     56                     57
                      A                      A                      A
 Frequencies --   1386.0709              1392.1488              1398.6410
 Red. masses --      1.4159                 1.6950                 1.2772
 Frc consts  --      1.6027                 1.9355                 1.4720
 IR Inten    --      9.1326                20.9907                 2.1972

                     58                     59                     60
                      A                      A                      A
 Frequencies --   1409.3802              1423.1715              1432.8437
 Red. masses --      1.3424                 1.4533                 1.3321
 Frc consts  --      1.5710                 1.7343                 1.6113
 IR Inten    --      5.2494                15.1761                12.0559

                     61                     62                     63
                      A                      A                      A
 Frequencies --   1433.6446              1475.3339              1482.0838
 Red. masses --      1.3319                 1.1057                 1.0870
 Frc consts  --      1.6129                 1.4180                 1.4068
 IR Inten    --     14.7667                 4.3781                 8.1428

                     64                     65                     66
                      A                      A                      A
 Frequencies --   1491.8913              1495.7477              1496.9543
 Red. masses --      1.0949                 1.0973                 1.0984
 Frc consts  --      1.4358                 1.4464                 1.4502
 IR Inten    --      2.1334                22.0011                 2.7924

                     67                     68                     69
                      A                      A                      A
 Frequencies --   1505.6613              1508.6568              1518.3098
 Red. masses --      1.0778                 1.0933                 1.0981
 Frc consts  --      1.4396                 1.4661                 1.4915
 IR Inten    --      9.8568                 8.4537                 7.6370

                     70                     71                     72
                      A                      A                      A
 Frequencies --   3030.7299              3039.8329              3047.3889
 Red. masses --      1.0780                 1.0682                 1.0796
 Frc consts  --      5.8342                 5.8154                 5.9070
 IR Inten    --     18.9655                89.7409               109.8251

                     73                     74                     75
                      A                      A                      A
 Frequencies --   3057.0449              3063.6752              3068.8517
 Red. masses --      1.0685                 1.0623                 1.0772
 Frc consts  --      5.8837                 5.8749                 5.9774
 IR Inten    --     40.5721                50.3481                30.1013

                     76                     77                     78
                      A                      A                      A
 Frequencies --   3072.5514              3076.4549              3080.9530
 Red. masses --      1.0638                 1.0680                 1.0699
 Frc consts  --      5.9172                 5.9554                 5.9839
 IR Inten    --     22.5755                18.6488                81.0602

                     79                     80                     81
                      A                      A                      A
 Frequencies --   3082.9505              3112.7211              3114.4446
 Red. masses --      1.0605                 1.0976                 1.0959
 Frc consts  --      5.9385                 6.2660                 6.2629
 IR Inten    --     49.2100                38.9032                19.4782

                     82                     83                     84
                      A                      A                      A
 Frequencies --   3118.3946              3130.0312              3132.1198
 Red. masses --      1.1024                 1.1031                 1.1020
 Frc consts  --      6.3163                 6.3676                 6.3695
 IR Inten    --     67.5701                43.5586                44.0263

                     85                     86                     87
                      A                      A                      A
 Frequencies --   3134.2428              3134.3345              3180.1405
 Red. masses --      1.1014                 1.0995                 1.0909
 Frc consts  --      6.3744                 6.3639                 6.5001
 IR Inten    --     58.6024                44.4041                14.2279

 - Thermochemistry -
 -------------------
 Temperature   298.150 Kelvin.  Pressure   1.00000 Atm.
 Atom     1 has atomic number  6 and mass  12.00000

 Molecular mass:   186.12559 amu.
 Principal axes and moments of inertia in atomic units:
                           1         2         3
     Eigenvalues --  1056.558213729.252313992.12069
           X            0.99999  -0.00408   0.00239
           Y            0.00420   0.99859  -0.05295
           Z           -0.00217   0.05296   0.99859
 This molecule is an asymmetric top.
 Rotational symmetry number  1.
 Warning -- assumption of classical behavior for rotation
           may cause significant error
 Rotational temperatures (Kelvin)      0.08198     0.02323     0.02170
 Rotational constants (GHZ):           1.70813     0.48394     0.45208
 Zero-point vibrational energy     737028.5 (Joules/Mol)
                                  176.15404 (Kcal/Mol)
 Warning -- explicit consideration of  17 degrees of freedom as
           vibrations may cause significant error
 Vibrational temperatures:     38.10    72.69   142.85   190.19   265.16
          (Kelvin)            297.73   342.17   414.47   449.65   510.77
                              575.54   624.56   654.57   670.87   766.48
                              823.66   862.36   960.36  1000.29  1172.30
                             1201.79  1212.17  1233.75  1285.03  1304.69
                             1318.63  1324.26  1339.26  1359.43  1431.52
                             1472.39  1503.55  1530.07  1537.10  1542.99
                             1551.97  1630.76  1645.90  1650.12  1694.18
                             1708.44  1741.75  1759.42  1774.74  1805.64
                             1851.90  1858.80  1893.95  1916.92  1930.08
                             1957.20  1969.58  1979.91  1991.04  1994.25
                             2002.99  2012.33  2027.78  2047.63  2061.54
                             2062.69  2122.68  2132.39  2146.50  2152.05
                             2153.78  2166.31  2170.62  2184.51  4360.54
                             4373.64  4384.51  4398.41  4407.95  4415.39
                             4420.72  4426.33  4432.80  4435.68  4478.51
                             4480.99  4486.67  4503.42  4506.42  4509.48
                             4509.61  4575.51

 Zero-point correction=                           0.280719 (Hartree/Particle)
 Thermal correction to Energy=                    0.292517
 Thermal correction to Enthalpy=                  0.293461
 Thermal correction to Gibbs Free Energy=         0.241913
 Sum of electronic and zero-point Energies=           -617.211755
 Sum of electronic and thermal Energies=              -617.199958
 Sum of electronic and thermal Enthalpies=            -617.199014
 Sum of electronic and thermal Free Energies=         -617.250562

                     E (Thermal)             CV                S
                      KCal/Mol        Cal/Mol-Kelvin    Cal/Mol-Kelvin
 Total                  183.557             46.673            108.492
 Electronic               0.000              0.000              0.000
 Translational            0.889              2.981             41.570
 Rotational               0.889              2.981             31.131
 Vibrational            181.780             40.712             35.790
 Vibration     1          0.593              1.985              6.077
 Vibration     2          0.595              1.977              4.797
 Vibration     3          0.604              1.950              3.468
 Vibration     4          0.612              1.921              2.914
 Vibration     5          0.631              1.861              2.284
 Vibration     6          0.641              1.830              2.071
 Vibration     7          0.656              1.783              1.819
 Vibration     8          0.685              1.696              1.485
 Vibration     9          0.701              1.650              1.349
 Vibration    10          0.731              1.565              1.144
 Vibration    11          0.766              1.470              0.963
 Vibration    12          0.795              1.396              0.845
 Vibration    13          0.813              1.350              0.781
 Vibration    14          0.824              1.325              0.748
 Vibration    15          0.888              1.178              0.581
 Vibration    16          0.929              1.091              0.500
 Vibration    17          0.957              1.033              0.451

 Optimization completed.
    -- Stationary point found.
 Normal termination of Gaussian 16 at Sun Nov  4 22:57:52 2018.
