 Gaussian 16, Revision A.03,
 Gaussian 16:  ES64L-G16RevA.03 25-Dec-2016

 ----------------------------------------------------------------------
 #M062X/6-311++G(2d,2p) opt=ModRedundant freq=noraman SCRF=(Solvent=Wat
 er)
 ----------------------------------------------------------------------

 -----------------------------
 D_a1-4_2SO_PSI.inp_extract_12
 -----------------------------
 Symbolic Z-matrix:
 Charge =  0 Multiplicity = 1

 SCF Done:  E(RM062X) =  -617.488118639     A.U. after   12 cycles
 SCF Done:  E(RM062X) =  -617.489645339     A.U. after   12 cycles
 SCF Done:  E(RM062X) =  -617.489882011     A.U. after   12 cycles
 SCF Done:  E(RM062X) =  -617.490079194     A.U. after   10 cycles
 SCF Done:  E(RM062X) =  -617.490087980     A.U. after   10 cycles
 SCF Done:  E(RM062X) =  -617.490092331     A.U. after    8 cycles
 SCF Done:  E(RM062X) =  -617.490092586     A.U. after    7 cycles
 SCF Done:  E(RM062X) =  -617.490092671     A.U. after    8 cycles
 SCF Done:  E(RM062X) =  -617.490092693     A.U. after    8 cycles
 Optimization completed.
    -- Stationary point found.
 Normal termination of Gaussian 16 at Sun Nov  4 22:04:49 2018.

 ----------------------------------------------------------------------
 #N Geom=AllCheck Guess=TCheck SCRF=Check GenChk RM062X/6-311++G(2d,2p)
  Freq
 ----------------------------------------------------------------------

 Structure from the checkpoint file:  "D_a1-4_2SO_PSI.inp_extract_12.chk"
 -----------------------------
 D_a1-4_2SO_PSI.inp_extract_12
 -----------------------------
 Charge =  0 Multiplicity = 1

                         Standard orientation:
 ---------------------------------------------------------------------
 Center     Atomic      Atomic             Coordinates (Angstroms)
 Number     Number       Type             X           Y           Z
 ---------------------------------------------------------------------
      1          6           0       -1.079371   -0.637458    0.940919
      2          6           0       -3.177625    0.515379   -0.788478
      3          8           0        1.012980    0.529133   -1.021508
      4          6           0       -1.863635   -1.332673   -0.170603
      5          6           0       -1.559029    0.811025    1.086880
      6          8           0        0.350222   -0.680022    0.857780
      7          6           0        2.375885   -1.298305   -0.189705
      8          6           0        3.256301   -0.309924    0.572461
      9          6           0        0.974508   -0.741105   -0.395402
     10          6           0        3.224714    1.043570   -0.135101
     11          6           0        1.784095    1.494852   -0.308467
     12          6           0       -3.030003    0.899337    0.689813
     13          8           0       -2.192038   -0.431947   -1.209248
     14          1           0       -1.298209   -1.177103    1.864593
     15          1           0       -4.173656    0.107849   -0.984003
     16          1           0       -3.030199    1.388693   -1.422129
     17          1           0       -1.314076   -2.163752   -0.605156
     18          1           0       -2.776320   -1.750020    0.265382
     19          1           0       -0.968648    1.430064    0.409531
     20          1           0       -1.386836    1.164310    2.101697
     21          1           0        2.300987   -2.253805    0.327772
     22          1           0        2.802676   -1.483467   -1.177358
     23          1           0        2.882371   -0.196929    1.592079
     24          1           0        4.275348   -0.689536    0.640118
     25          1           0        0.412833   -1.361627   -1.089499
     26          1           0        3.773601    1.797874    0.429636
     27          1           0        3.693382    0.958034   -1.118559
     28          1           0        1.717808    2.411552   -0.890803
     29          1           0        1.328444    1.674232    0.669722
     30          1           0       -3.622719    0.233506    1.319740
     31          1           0       -3.421151    1.904620    0.837152
 ---------------------------------------------------------------------

 SCF Done:  E(RM062X) =  -617.490092693     A.U. after    1 cycles

 The electronic state is 1-A.
 Alpha  occ. eigenvalues --  -19.62932 -19.62808 -19.62519 -10.63268 -10.58920
 Alpha  occ. eigenvalues --  -10.58353 -10.58078 -10.57531 -10.53343 -10.52949
 Alpha  occ. eigenvalues --  -10.52928 -10.52887 -10.52751  -1.19511  -1.16281
 Alpha  occ. eigenvalues --   -1.12931  -0.90845  -0.89580  -0.86759  -0.84636
 Alpha  occ. eigenvalues --   -0.75448  -0.74317  -0.72893  -0.70678  -0.65213
 Alpha  occ. eigenvalues --   -0.61442  -0.60832  -0.58706  -0.57809  -0.56462
 Alpha  occ. eigenvalues --   -0.53688  -0.52887  -0.52728  -0.50310  -0.49240
 Alpha  occ. eigenvalues --   -0.47280  -0.46319  -0.45725  -0.45356  -0.44999
 Alpha  occ. eigenvalues --   -0.43899  -0.42530  -0.41801  -0.40698  -0.39945
 Alpha  occ. eigenvalues --   -0.38158  -0.36997  -0.36491  -0.33840  -0.33081
 Alpha  occ. eigenvalues --   -0.31857
 Alpha virt. eigenvalues --   -0.00178   0.00764   0.00899   0.01014   0.02276
 Alpha virt. eigenvalues --    0.02507   0.02624   0.03243   0.03460   0.04433
 Alpha virt. eigenvalues --    0.04702   0.04988   0.05600   0.05761   0.07184

 Mulliken charges:
               1
     1  C    0.120604
     2  C   -0.233770
     3  O   -0.258279
     4  C   -0.372741
     5  C   -0.296393
     6  O   -0.298527
     7  C   -0.405087
     8  C   -0.322070
     9  C   -0.169731
    10  C   -0.410322
    11  C   -0.110181
    12  C   -0.358178
    13  O   -0.289340
    14  H    0.249915
    15  H    0.179701
    16  H    0.177678
    17  H    0.175873
    18  H    0.184594
    19  H    0.170267
    20  H    0.194754
    21  H    0.178920
    22  H    0.184475
    23  H    0.179284
    24  H    0.189734
    25  H    0.317228
    26  H    0.170773
    27  H    0.161932
    28  H    0.212863
    29  H    0.130610
    30  H    0.185826
    31  H    0.159590
 Sum of Mulliken charges =  -0.00000

 Dipole moment (field-independent basis, Debye):
    X=             -0.7550    Y=             -0.0720    Z=              2.2447  Tot=              2.3694
 Quadrupole moment (field-independent basis, Debye-Ang):
   XX=            -69.4750   YY=            -74.5885   ZZ=            -85.8476
   XY=             -0.1560   XZ=             -4.4476   YZ=              0.8790

  Exact polarizability: 171.720  -0.999 159.933  -0.070  -0.198 150.430
 Approx polarizability: 144.870   0.168 143.384  -1.167  -0.804 142.041

                      1                      2                      3
                      A                      A                      A
 Frequencies --     24.0825                62.5977                78.6098
 Red. masses --      3.7975                 3.2540                 3.6406
 Frc consts  --      0.0013                 0.0075                 0.0133
 IR Inten    --      0.3308                 0.6270                 3.8926

                      4                      5                      6
                      A                      A                      A
 Frequencies --    123.8414               185.8032               207.7409
 Red. masses --      3.3235                 3.7428                 2.5852
 Frc consts  --      0.0300                 0.0761                 0.0657
 IR Inten    --      3.7413                 9.8464                 4.0314

                      7                      8                      9
                      A                      A                      A
 Frequencies --    245.0019               304.7747               324.9241
 Red. masses --      2.1364                 2.1472                 4.1308
 Frc consts  --      0.0756                 0.1175                 0.2569
 IR Inten    --      3.0030                 6.2726                 4.3632

                     10                     11                     12
                      A                      A                      A
 Frequencies --    342.2136               397.9863               436.9737
 Red. masses --      2.2341                 2.4941                 3.6456
 Frc consts  --      0.1542                 0.2328                 0.4101
 IR Inten    --      1.8234                12.8852                10.4859

                     13                     14                     15
                      A                      A                      A
 Frequencies --    451.6034               462.3661               531.6145
 Red. masses --      3.6196                 2.0865                 2.5784
 Frc consts  --      0.4349                 0.2628                 0.4293
 IR Inten    --      1.9837                 3.5586                 2.9821

                     16                     17                     18
                      A                      A                      A
 Frequencies --    553.9201               621.2305               676.0456
 Red. masses --      3.1593                 2.5249                 2.5259
 Frc consts  --      0.5711                 0.5741                 0.6802
 IR Inten    --      8.4034                17.4319                 3.3409

                     19                     20                     21
                      A                      A                      A
 Frequencies --    681.4297               802.3744               836.8601
 Red. masses --      2.8065                 2.5784                 1.5619
 Frc consts  --      0.7678                 0.9780                 0.6445
 IR Inten    --      4.7851                 7.2097                 6.9713

                     22                     23                     24
                      A                      A                      A
 Frequencies --    843.8324               857.6893               893.0840
 Red. masses --      3.3604                 1.8428                 2.4207
 Frc consts  --      1.4098                 0.7987                 1.1375
 IR Inten    --      8.0575                 9.0525                29.1857

                     25                     26                     27
                      A                      A                      A
 Frequencies --    901.0245               913.7163               922.9241
 Red. masses --      2.4096                 2.2935                 2.2715
 Frc consts  --      1.1526                 1.1281                 1.1400
 IR Inten    --      5.6013                13.9193                20.2149

                     28                     29                     30
                      A                      A                      A
 Frequencies --    925.9547               948.9132               982.5555
 Red. masses --      1.8434                 1.6574                 1.9395
 Frc consts  --      0.9312                 0.8793                 1.1032
 IR Inten    --     43.0317                11.8322                39.9490

                     31                     32                     33
                      A                      A                      A
 Frequencies --   1018.9310              1048.7261              1062.0273
 Red. masses --      2.1458                 2.3558                 1.6537
 Frc consts  --      1.3126                 1.5265                 1.0989
 IR Inten    --     82.8539                82.1803                38.7465

                     34                     35                     36
                      A                      A                      A
 Frequencies --   1064.6022              1072.6311              1081.1953
 Red. masses --      1.6719                 2.2031                 2.2987
 Frc consts  --      1.1164                 1.4934                 1.5832
 IR Inten    --     41.7070                16.0971               178.1777

                     37                     38                     39
                      A                      A                      A
 Frequencies --   1137.9871              1146.4874              1150.9980
 Red. masses --      2.6353                 3.6835                 2.3182
 Frc consts  --      2.0107                 2.8526                 1.8095
 IR Inten    --    104.4212               139.6628                 4.8255

                     40                     41                     42
                      A                      A                      A
 Frequencies --   1164.9820              1191.9460              1209.8507
 Red. masses --      2.3681                 3.9251                 1.3923
 Frc consts  --      1.8936                 3.2856                 1.2007
 IR Inten    --     21.4889               207.9002                11.7879

                     43                     44                     45
                      A                      A                      A
 Frequencies --   1221.9858              1234.9857              1250.2510
 Red. masses --      1.3834                 1.6576                 1.4707
 Frc consts  --      1.2171                 1.4896                 1.3545
 IR Inten    --      3.4727                49.0847                45.6911

                     46                     47                     48
                      A                      A                      A
 Frequencies --   1287.7562              1289.7452              1320.9130
 Red. masses --      1.2291                 1.2092                 1.1575
 Frc consts  --      1.2009                 1.1851                 1.1899
 IR Inten    --     40.5216                 4.1699                 7.7550

                     49                     50                     51
                      A                      A                      A
 Frequencies --   1326.8337              1347.0889              1357.6948
 Red. masses --      1.1962                 1.3230                 1.3456
 Frc consts  --      1.2408                 1.4145                 1.4614
 IR Inten    --     13.8020                11.6926                 8.7511

                     52                     53                     54
                      A                      A                      A
 Frequencies --   1374.4254              1379.3901              1387.0009
 Red. masses --      1.4954                 1.3979                 1.4718
 Frc consts  --      1.6644                 1.5671                 1.6682
 IR Inten    --     16.0306                 8.6009                 1.2681

                     55                     56                     57
                      A                      A                      A
 Frequencies --   1391.3143              1395.6534              1397.2884
 Red. masses --      1.5435                 1.3859                 1.3290
 Frc consts  --      1.7603                 1.5905                 1.5287
 IR Inten    --      1.8335                13.2855                 1.5047

                     58                     59                     60
                      A                      A                      A
 Frequencies --   1411.6179              1424.2394              1426.4408
 Red. masses --      1.2890                 1.2981                 1.3764
 Frc consts  --      1.5134                 1.5514                 1.6501
 IR Inten    --     14.4925                 0.5986                 5.8571

                     61                     62                     63
                      A                      A                      A
 Frequencies --   1436.1586              1476.9228              1483.3767
 Red. masses --      1.3157                 1.1026                 1.0860
 Frc consts  --      1.5988                 1.4170                 1.4079
 IR Inten    --     21.5473                 5.0185                 7.2774

                     64                     65                     66
                      A                      A                      A
 Frequencies --   1489.7779              1495.8236              1500.7569
 Red. masses --      1.0952                 1.1054                 1.0875
 Frc consts  --      1.4322                 1.4573                 1.4431
 IR Inten    --      4.2539                11.5414                 8.2716

                     67                     68                     69
                      A                      A                      A
 Frequencies --   1509.4988              1513.9966              1528.7107
 Red. masses --      1.0939                 1.0888                 1.0836
 Frc consts  --      1.4685                 1.4704                 1.4921
 IR Inten    --      2.4086                 3.2963                21.4089

                     70                     71                     72
                      A                      A                      A
 Frequencies --   3042.5275              3047.4019              3053.3396
 Red. masses --      1.0683                 1.0722                 1.0682
 Frc consts  --      5.8267                 5.8665                 5.8675
 IR Inten    --     97.1983                19.0972                45.0310

                     73                     74                     75
                      A                      A                      A
 Frequencies --   3062.7420              3072.0012              3072.8246
 Red. masses --      1.0621                 1.0641                 1.0843
 Frc consts  --      5.8697                 5.9165                 6.0321
 IR Inten    --     44.2506                22.9478                70.3148

                     76                     77                     78
                      A                      A                      A
 Frequencies --   3075.4215              3076.1511              3088.4417
 Red. masses --      1.0678                 1.0619                 1.0599
 Frc consts  --      5.9506                 5.9203                 5.9564
 IR Inten    --     40.8451                30.3900                37.0385

                     79                     80                     81
                      A                      A                      A
 Frequencies --   3111.4131              3113.7203              3118.5191
 Red. masses --      1.0984                 1.0961                 1.1021
 Frc consts  --      6.2651                 6.2613                 6.3150
 IR Inten    --     48.6317                18.3912                63.1991

                     82                     83                     84
                      A                      A                      A
 Frequencies --   3129.4100              3129.6864              3131.3273
 Red. masses --      1.0923                 1.1023                 1.0992
 Frc consts  --      6.3028                 6.3615                 6.3499
 IR Inten    --     14.9057                42.5054                94.8635

                     85                     86                     87
                      A                      A                      A
 Frequencies --   3132.2000              3139.5679              3151.2161
 Red. masses --      1.0959                 1.1050                 1.0894
 Frc consts  --      6.3344                 6.4175                 6.3736
 IR Inten    --     36.1494                31.8334                43.0190

 - Thermochemistry -
 -------------------
 Temperature   298.150 Kelvin.  Pressure   1.00000 Atm.
 Atom     1 has atomic number  6 and mass  12.00000

 Molecular mass:   186.12559 amu.
 Principal axes and moments of inertia in atomic units:
                           1         2         3
     Eigenvalues --  1037.944353713.179453893.83277
           X            0.99998  -0.00312  -0.00470
           Y            0.00330   0.99926   0.03840
           Z            0.00457  -0.03842   0.99925
 This molecule is an asymmetric top.
 Rotational symmetry number  1.
 Warning -- assumption of classical behavior for rotation
           may cause significant error
 Rotational temperatures (Kelvin)      0.08345     0.02333     0.02224
 Rotational constants (GHZ):           1.73876     0.48604     0.46349
 Zero-point vibrational energy     737495.5 (Joules/Mol)
                                  176.26564 (Kcal/Mol)
 Warning -- explicit consideration of  16 degrees of freedom as
           vibrations may cause significant error
 Vibrational temperatures:     34.65    90.06   113.10   178.18   267.33
          (Kelvin)            298.89   352.50   438.50   467.49   492.37
                              572.61   628.71   649.76   665.24   764.87
                              796.97   893.81   972.68   980.43  1154.44
                             1204.05  1214.09  1234.02  1284.95  1296.37
                             1314.63  1327.88  1332.24  1365.27  1413.68
                             1466.01  1508.88  1528.02  1531.73  1543.28
                             1555.60  1637.31  1649.54  1656.03  1676.15
                             1714.94  1740.71  1758.16  1776.87  1798.83
                             1852.79  1855.66  1900.50  1909.02  1938.16
                             1953.42  1977.49  1984.63  1995.58  2001.79
                             2008.03  2010.39  2031.00  2049.16  2052.33
                             2066.31  2124.96  2134.25  2143.46  2152.16
                             2159.25  2171.83  2178.30  2199.47  4377.52
                             4384.53  4393.07  4406.60  4419.92  4421.11
                             4424.85  4425.90  4443.58  4476.63  4479.95
                             4486.85  4502.52  4502.92  4505.28  4506.54
                             4517.14  4533.90

 Zero-point correction=                           0.280897 (Hartree/Particle)
 Thermal correction to Energy=                    0.292708
 Thermal correction to Enthalpy=                  0.293652
 Thermal correction to Gibbs Free Energy=         0.242025
 Sum of electronic and zero-point Energies=           -617.209196
 Sum of electronic and thermal Energies=              -617.197385
 Sum of electronic and thermal Enthalpies=            -617.196440
 Sum of electronic and thermal Free Energies=         -617.248068

                     E (Thermal)             CV                S
                      KCal/Mol        Cal/Mol-Kelvin    Cal/Mol-Kelvin
 Total                  183.677             46.696            108.660
 Electronic               0.000              0.000              0.000
 Translational            0.889              2.981             41.570
 Rotational               0.889              2.981             31.085
 Vibrational            181.900             40.734             36.005
 Vibration     1          0.593              1.985              6.265
 Vibration     2          0.597              1.972              4.374
 Vibration     3          0.600              1.964              3.925
 Vibration     4          0.610              1.929              3.040
 Vibration     5          0.632              1.859              2.269
 Vibration     6          0.641              1.829              2.063
 Vibration     7          0.660              1.771              1.766
 Vibration     8          0.696              1.665              1.391
 Vibration     9          0.709              1.626              1.285
 Vibration    10          0.721              1.591              1.202
 Vibration    11          0.764              1.474              0.970
 Vibration    12          0.797              1.390              0.836
 Vibration    13          0.810              1.357              0.791
 Vibration    14          0.820              1.334              0.759
 Vibration    15          0.887              1.180              0.584
 Vibration    16          0.909              1.131              0.536

                           ! Non-Optimized Parameters !
 Normal termination of Gaussian 16 at Sun Nov  4 22:57:44 2018.
