 Gaussian 16, Revision A.03,
 Gaussian 16:  ES64L-G16RevA.03 25-Dec-2016

 ----------------------------------------------------------------------
 #M062X/6-311++G(2d,2p) opt=ModRedundant freq=noraman SCRF=(Solvent=Wat
 er)
 ----------------------------------------------------------------------

 ----------------------------
 2SO_1_e4_D_PSI.inp_extract_5
 ----------------------------
 Symbolic Z-matrix:
 Charge =  0 Multiplicity = 1

 SCF Done:  E(RM062X) =  -617.491474754     A.U. after   12 cycles
 SCF Done:  E(RM062X) =  -617.493124895     A.U. after   11 cycles
 SCF Done:  E(RM062X) =  -617.493386747     A.U. after   10 cycles
 SCF Done:  E(RM062X) =  -617.493507351     A.U. after    9 cycles
 SCF Done:  E(RM062X) =  -617.493532603     A.U. after    9 cycles
 SCF Done:  E(RM062X) =  -617.493540088     A.U. after    9 cycles
 SCF Done:  E(RM062X) =  -617.493541509     A.U. after    8 cycles
 SCF Done:  E(RM062X) =  -617.493541701     A.U. after    7 cycles
 Optimization completed.
    -- Stationary point found.
 Normal termination of Gaussian 16 at Mon Nov  5 01:31:34 2018.

 ----------------------------------------------------------------------
 #N Geom=AllCheck Guess=TCheck SCRF=Check GenChk RM062X/6-311++G(2d,2p)
  Freq
 ----------------------------------------------------------------------

 Structure from the checkpoint file:  "2SO_1_e4_D_PSI.inp_extract_5.chk"
 ----------------------------
 2SO_1_e4_D_PSI.inp_extract_5
 ----------------------------
 Charge =  0 Multiplicity = 1

                         Standard orientation:
 ---------------------------------------------------------------------
 Center     Atomic      Atomic             Coordinates (Angstroms)
 Number     Number       Type             X           Y           Z
 ---------------------------------------------------------------------
      1          6           0       -1.145257    0.209502    0.459765
      2          6           0        3.846229   -0.438082    0.425471
      3          6           0        1.103162    0.214896   -0.472046
      4          6           0        2.524714   -0.839409    1.088583
      5          6           0        3.559959    0.412365   -0.822895
      6          6           0       -2.210037    1.296105    0.422427
      7          6           0       -1.477139   -0.830234   -0.614739
      8          6           0       -3.789506   -0.426274   -0.445702
      9          8           0       -2.750160   -1.392386   -0.354141
     10          6           0       -3.598463    0.678828    0.579250
     11          8           0        0.124959    0.845076    0.310975
     12          6           0        2.264753    1.193345   -0.620921
     13          8           0        1.511559   -1.011906    0.100818
     14          1           0       -1.164862   -0.302078    1.427086
     15          1           0        4.419160   -1.324015    0.154833
     16          1           0        4.441025    0.128205    1.143433
     17          1           0        0.704545   -0.056671   -1.449669
     18          1           0        2.606625   -1.786148    1.616112
     19          1           0        2.200359   -0.082496    1.806707
     20          1           0        3.450113   -0.235173   -1.694081
     21          1           0        4.388263    1.087259   -1.029410
     22          1           0       -2.015707    2.030154    1.204767
     23          1           0       -2.132671    1.809657   -0.539744
     24          1           0       -0.764596   -1.651345   -0.612352
     25          1           0       -1.478373   -0.358600   -1.605587
     26          1           0       -3.799765   -0.004768   -1.458217
     27          1           0       -4.721147   -0.964726   -0.286232
     28          1           0       -4.373273    1.435097    0.453128
     29          1           0       -3.707830    0.257238    1.580559
     30          1           0        2.328980    1.800733    0.283997
     31          1           0        2.057806    1.865172   -1.451703
 ---------------------------------------------------------------------

 SCF Done:  E(RM062X) =  -617.493541701     A.U. after    1 cycles

 The electronic state is 1-A.
 Alpha  occ. eigenvalues --  -19.63282 -19.63266 -19.62989 -10.63665 -10.58856
 Alpha  occ. eigenvalues --  -10.58252 -10.58073 -10.57877 -10.53259 -10.53249
 Alpha  occ. eigenvalues --  -10.53211 -10.53185 -10.52906  -1.19960  -1.16742
 Alpha  occ. eigenvalues --   -1.13550  -0.90942  -0.89809  -0.86935  -0.84629
 Alpha  occ. eigenvalues --   -0.75480  -0.74740  -0.72839  -0.70022  -0.65771
 Alpha  occ. eigenvalues --   -0.62308  -0.60876  -0.59317  -0.57837  -0.56551
 Alpha  occ. eigenvalues --   -0.55404  -0.52982  -0.51726  -0.50605  -0.49378
 Alpha  occ. eigenvalues --   -0.47868  -0.46878  -0.45638  -0.45577  -0.44536
 Alpha  occ. eigenvalues --   -0.44067  -0.43278  -0.40756  -0.40432  -0.39742
 Alpha  occ. eigenvalues --   -0.38529  -0.37634  -0.36072  -0.34832  -0.33772
 Alpha  occ. eigenvalues --   -0.32366
 Alpha virt. eigenvalues --   -0.00115   0.00722   0.00816   0.01143   0.02092
 Alpha virt. eigenvalues --    0.02340   0.02540   0.03584   0.03761   0.04277
 Alpha virt. eigenvalues --    0.04475   0.04545   0.05593   0.05776   0.07060

 Mulliken charges:
               1
     1  C   -0.017323
     2  C   -0.480901
     3  C   -0.157209
     4  C   -0.059008
     5  C   -0.209956
     6  C   -0.265763
     7  C   -0.327889
     8  C   -0.136309
     9  O   -0.352319
    10  C   -0.373754
    11  O   -0.325296
    12  C   -0.405707
    13  O   -0.276830
    14  H    0.242642
    15  H    0.164213
    16  H    0.147314
    17  H    0.264912
    18  H    0.199768
    19  H    0.151527
    20  H    0.150235
    21  H    0.197657
    22  H    0.174169
    23  H    0.198014
    24  H    0.232664
    25  H    0.213567
    26  H    0.131743
    27  H    0.205399
    28  H    0.175575
    29  H    0.164055
    30  H    0.200987
    31  H    0.173823
 Sum of Mulliken charges =  -0.00000

 Dipole moment (field-independent basis, Debye):
    X=              0.7873    Y=              2.1712    Z=             -0.4956  Tot=              2.3621
 Quadrupole moment (field-independent basis, Debye-Ang):
   XX=            -68.6295   YY=            -86.4421   ZZ=            -77.1699
   XY=             -4.8783   XZ=              1.0701   YZ=             -2.0982

  Exact polarizability: 180.466  -2.038 153.154  -1.166  -2.373 152.343
 Approx polarizability: 148.202  -0.864 141.998  -0.239  -1.325 141.583

 ******    1 imaginary frequencies (negative Signs) ******

                      1                      2                      3
                      A                      A                      A
 Frequencies --    -19.1899                61.5676                75.6374
 Red. masses --      3.5073                 4.1740                 3.5103
 Frc consts  --      0.0008                 0.0093                 0.0118
 IR Inten    --      2.1075                 0.6923                 2.3277

                      4                      5                      6
                      A                      A                      A
 Frequencies --    135.5943               176.3634               226.9032
 Red. masses --      3.1116                 2.2922                 2.5070
 Frc consts  --      0.0337                 0.0420                 0.0760
 IR Inten    --      0.4163                 2.2992                 7.5510

                      7                      8                      9
                      A                      A                      A
 Frequencies --    255.7819               266.4229               277.2572
 Red. masses --      2.1288                 2.5943                 3.8191
 Frc consts  --      0.0821                 0.1085                 0.1730
 IR Inten    --      3.7195                 0.5830                 2.8063

                     10                     11                     12
                      A                      A                      A
 Frequencies --    351.4809               379.4395               441.1561
 Red. masses --      2.7064                 2.6374                 3.1716
 Frc consts  --      0.1970                 0.2237                 0.3637
 IR Inten    --      8.9229                20.8527                 2.8149

                     13                     14                     15
                      A                      A                      A
 Frequencies --    454.2986               469.7675               509.7157
 Red. masses --      3.5030                 2.6348                 2.8293
 Frc consts  --      0.4260                 0.3426                 0.4331
 IR Inten    --      4.1161                 2.2106                 3.0357

                     16                     17                     18
                      A                      A                      A
 Frequencies --    553.3226               613.6910               632.6298
 Red. masses --      2.6243                 3.7772                 1.9956
 Frc consts  --      0.4734                 0.8381                 0.4706
 IR Inten    --      2.5812                 6.0357                 8.8004

                     19                     20                     21
                      A                      A                      A
 Frequencies --    658.7329               783.1710               829.1627
 Red. masses --      3.8395                 1.2949                 2.1848
 Frc consts  --      0.9816                 0.4680                 0.8850
 IR Inten    --      7.8527                 6.1370                 0.6624

                     22                     23                     24
                      A                      A                      A
 Frequencies --    842.2640               876.8808               891.8142
 Red. masses --      2.7186                 1.3909                 2.6952
 Frc consts  --      1.1363                 0.6301                 1.2629
 IR Inten    --     11.8479                 9.2616                 3.8479

                     25                     26                     27
                      A                      A                      A
 Frequencies --    899.7845               922.4290               942.0180
 Red. masses --      2.4800                 2.1034                 2.2999
 Frc consts  --      1.1830                 1.0545                 1.2025
 IR Inten    --     30.5743                23.2798                18.1532

                     28                     29                     30
                      A                      A                      A
 Frequencies --    971.3512               984.7422               994.6444
 Red. masses --      1.7252                 1.8411                 1.8194
 Frc consts  --      0.9591                 1.0519                 1.0605
 IR Inten    --      9.4817                30.5919                33.3195

                     31                     32                     33
                      A                      A                      A
 Frequencies --   1008.7469              1043.4417              1056.7913
 Red. masses --      2.0561                 2.7378                 1.8353
 Frc consts  --      1.2327                 1.7563                 1.2076
 IR Inten    --      6.9974                81.1431                88.6391

                     34                     35                     36
                      A                      A                      A
 Frequencies --   1073.6577              1083.3427              1115.2381
 Red. masses --      1.8054                 2.2795                 4.3899
 Frc consts  --      1.2262                 1.5762                 3.2169
 IR Inten    --    150.3357                 6.0889               318.4327

                     37                     38                     39
                      A                      A                      A
 Frequencies --   1139.9043              1158.4988              1170.9488
 Red. masses --      2.7223                 3.0853                 3.9121
 Frc consts  --      2.0841                 2.4397                 3.1604
 IR Inten    --    121.7675               112.8063               124.1929

                     40                     41                     42
                      A                      A                      A
 Frequencies --   1175.4389              1186.1597              1214.4557
 Red. masses --      2.2410                 2.3613                 1.3935
 Frc consts  --      1.8243                 1.9574                 1.2110
 IR Inten    --     38.4358                34.4365                 7.0782

                     43                     44                     45
                      A                      A                      A
 Frequencies --   1220.5486              1244.1362              1250.8040
 Red. masses --      1.5463                 1.6439                 1.5190
 Frc consts  --      1.3572                 1.4992                 1.4002
 IR Inten    --     16.1950                34.2586                20.7654

                     46                     47                     48
                      A                      A                      A
 Frequencies --   1290.1101              1305.5976              1308.2854
 Red. masses --      1.2021                 1.1516                 1.1653
 Frc consts  --      1.1788                 1.1566                 1.1751
 IR Inten    --      2.8449                21.2835                 9.8770

                     49                     50                     51
                      A                      A                      A
 Frequencies --   1337.9372              1341.0144              1349.9536
 Red. masses --      1.3144                 1.2140                 1.2979
 Frc consts  --      1.3862                 1.2862                 1.3936
 IR Inten    --      7.0998                 1.3286                 3.5916

                     52                     53                     54
                      A                      A                      A
 Frequencies --   1359.6169              1366.6698              1372.2416
 Red. masses --      1.2554                 1.4273                 1.3737
 Frc consts  --      1.3673                 1.5707                 1.5241
 IR Inten    --      5.3197                 2.2777                 0.5772

                     55                     56                     57
                      A                      A                      A
 Frequencies --   1383.0937              1397.0343              1401.9245
 Red. masses --      1.4467                 1.4346                 1.2987
 Frc consts  --      1.6306                 1.6497                 1.5039
 IR Inten    --      2.2345                37.4227                 0.2727

                     58                     59                     60
                      A                      A                      A
 Frequencies --   1410.5271              1422.1304              1429.2656
 Red. masses --      1.3727                 1.3108                 1.4194
 Frc consts  --      1.6091                 1.5619                 1.7084
 IR Inten    --      7.4530                 9.5670                 3.7757

                     61                     62                     63
                      A                      A                      A
 Frequencies --   1431.2452              1480.9815              1487.3327
 Red. masses --      1.4935                 1.0934                 1.0791
 Frc consts  --      1.8025                 1.4129                 1.4064
 IR Inten    --     33.1128                 8.0128                 2.3377

                     64                     65                     66
                      A                      A                      A
 Frequencies --   1495.0835              1496.3228              1503.5444
 Red. masses --      1.0955                 1.1121                 1.0977
 Frc consts  --      1.4428                 1.4670                 1.4621
 IR Inten    --      5.5259                12.1714                 9.1086

                     67                     68                     69
                      A                      A                      A
 Frequencies --   1506.0994              1521.0758              1524.5865
 Red. masses --      1.0836                 1.0968                 1.0868
 Frc consts  --      1.4481                 1.4951                 1.4883
 IR Inten    --      2.7492                 6.8311                 4.6431

                     70                     71                     72
                      A                      A                      A
 Frequencies --   3016.3876              3022.4357              3046.2002
 Red. masses --      1.0700                 1.0704                 1.0818
 Frc consts  --      5.7362                 5.7610                 5.9143
 IR Inten    --     30.1634                81.3344                47.7596

                     73                     74                     75
                      A                      A                      A
 Frequencies --   3061.2805              3062.0072              3071.5010
 Red. masses --      1.0656                 1.0688                 1.0618
 Frc consts  --      5.8839                 5.9044                 5.9022
 IR Inten    --     62.3961                35.2278                39.4055

                     76                     77                     78
                      A                      A                      A
 Frequencies --   3075.3510              3079.0870              3082.6232
 Red. masses --      1.0659                 1.0635                 1.0631
 Frc consts  --      5.9398                 5.9408                 5.9519
 IR Inten    --     17.8119                39.2282                40.8778

                     79                     80                     81
                      A                      A                      A
 Frequencies --   3100.6338              3113.9290              3117.3972
 Red. masses --      1.0850                 1.0993                 1.0992
 Frc consts  --      6.1457                 6.2806                 6.2936
 IR Inten    --     39.6888                41.7570                30.4517

                     82                     83                     84
                      A                      A                      A
 Frequencies --   3121.0097              3131.6164              3134.4947
 Red. masses --      1.1029                 1.1016                 1.0950
 Frc consts  --      6.3298                 6.3653                 6.3385
 IR Inten    --     54.3718                43.6436                46.9963

                     85                     86                     87
                      A                      A                      A
 Frequencies --   3135.8316              3144.6346              3149.4224
 Red. masses --      1.1004                 1.1002                 1.0947
 Frc consts  --      6.3754                 6.4099                 6.3972
 IR Inten    --     57.8926                47.3522                16.3555

 - Thermochemistry -
 -------------------
 Temperature   298.150 Kelvin.  Pressure   1.00000 Atm.
 Atom     1 has atomic number  6 and mass  12.00000

 Molecular mass:   186.12559 amu.
 Principal axes and moments of inertia in atomic units:
                           1         2         3
     Eigenvalues --   824.141224722.960144987.25382
           X            0.99998  -0.00599  -0.00054
           Y            0.00597   0.99963  -0.02635
           Z            0.00070   0.02635   0.99965
 This molecule is an asymmetric top.
 Rotational symmetry number  1.
 Warning -- assumption of classical behavior for rotation
           may cause significant error
 Rotational temperatures (Kelvin)      0.10510     0.01834     0.01737
 Rotational constants (GHZ):           2.18984     0.38212     0.36187
    1 imaginary frequencies ignored.
 Zero-point vibrational energy     736945.4 (Joules/Mol)
                                  176.13418 (Kcal/Mol)
 Warning -- explicit consideration of  16 degrees of freedom as
           vibrations may cause significant error
 Vibrational temperatures:     88.58   108.83   195.09   253.75   326.46
          (Kelvin)            368.01   383.32   398.91   505.70   545.93
                              634.73   653.63   675.89   733.37   796.11
                              882.96   910.21   947.77  1126.81  1192.98
                             1211.83  1261.64  1283.12  1294.59  1327.17
                             1355.35  1397.56  1416.82  1431.07  1451.36
                             1501.28  1520.49  1544.75  1558.69  1604.58
                             1640.07  1666.82  1684.73  1691.19  1706.62
                             1747.33  1756.10  1790.03  1799.63  1856.18
                             1878.46  1882.33  1924.99  1929.42  1942.28
                             1956.19  1966.33  1974.35  1989.96  2010.02
                             2017.06  2029.43  2046.13  2056.39  2059.24
                             2130.80  2139.94  2151.09  2152.87  2163.26
                             2166.94  2188.49  2193.54  4339.91  4348.61
                             4382.80  4404.50  4405.55  4419.20  4424.74
                             4430.12  4435.21  4461.12  4480.25  4485.24
                             4490.44  4505.70  4509.84  4511.76  4524.43
                             4531.32

 Zero-point correction=                           0.280688 (Hartree/Particle)
 Thermal correction to Energy=                    0.291700
 Thermal correction to Enthalpy=                  0.292644
 Thermal correction to Gibbs Free Energy=         0.243694
 Sum of electronic and zero-point Energies=           -617.212854
 Sum of electronic and thermal Energies=              -617.201842
 Sum of electronic and thermal Enthalpies=            -617.200898
 Sum of electronic and thermal Free Energies=         -617.249848

                     E (Thermal)             CV                S
                      KCal/Mol        Cal/Mol-Kelvin    Cal/Mol-Kelvin
 Total                  183.044             44.839            103.024
 Electronic               0.000              0.000              0.000
 Translational            0.889              2.981             41.570
 Rotational               0.889              2.981             31.341
 Vibrational            181.267             38.877             30.113
 Vibration     1          0.597              1.973              4.406
 Vibration     2          0.599              1.965              4.001
 Vibration     3          0.613              1.918              2.865
 Vibration     4          0.628              1.871              2.367
 Vibration     5          0.651              1.800              1.903
 Vibration     6          0.666              1.753              1.690
 Vibration     7          0.672              1.735              1.619
 Vibration     8          0.678              1.716              1.551
 Vibration     9          0.728              1.572              1.160
 Vibration    10          0.749              1.514              1.041
 Vibration    11          0.801              1.380              0.823
 Vibration    12          0.813              1.351              0.783
 Vibration    13          0.827              1.317              0.738
 Vibration    14          0.865              1.228              0.634
 Vibration    15          0.909              1.132              0.537
 Vibration    16          0.973              1.003              0.427

                           ! Non-Optimized Parameters !
 Normal termination of Gaussian 16 at Mon Nov  5 02:23:34 2018.
