 Gaussian 16, Revision A.03,
 Gaussian 16:  ES64L-G16RevA.03 25-Dec-2016

 ----------------------------------------------------------------------
 #M062X/6-311++G(2d,2p) opt=ModRedundant freq=noraman SCRF=(Solvent=Wat
 er)
 ----------------------------------------------------------------------

 -----------------------------
 2SO_1_e4_D_PSI.inp_extract_15
 -----------------------------
 Symbolic Z-matrix:
 Charge =  0 Multiplicity = 1

 SCF Done:  E(RM062X) =  -617.490793839     A.U. after   12 cycles
 SCF Done:  E(RM062X) =  -617.492311376     A.U. after   11 cycles
 SCF Done:  E(RM062X) =  -617.492647461     A.U. after   11 cycles
 SCF Done:  E(RM062X) =  -617.492792290     A.U. after    9 cycles
 SCF Done:  E(RM062X) =  -617.492826516     A.U. after    9 cycles
 SCF Done:  E(RM062X) =  -617.492838173     A.U. after    9 cycles
 SCF Done:  E(RM062X) =  -617.492842536     A.U. after    8 cycles
 SCF Done:  E(RM062X) =  -617.492843039     A.U. after    7 cycles
 SCF Done:  E(RM062X) =  -617.492843309     A.U. after    7 cycles
 Optimization completed.
    -- Stationary point found.
 Normal termination of Gaussian 16 at Mon Nov  5 00:24:11 2018.

 ----------------------------------------------------------------------
 #N Geom=AllCheck Guess=TCheck SCRF=Check GenChk RM062X/6-311++G(2d,2p)
  Freq
 ----------------------------------------------------------------------

 Structure from the checkpoint file:  "2SO_1_e4_D_PSI.inp_extract_15.chk"
 -----------------------------
 2SO_1_e4_D_PSI.inp_extract_15
 -----------------------------
 Charge =  0 Multiplicity = 1

                         Standard orientation:
 ---------------------------------------------------------------------
 Center     Atomic      Atomic             Coordinates (Angstroms)
 Number     Number       Type             X           Y           Z
 ---------------------------------------------------------------------
      1          6           0        1.218988   -0.620171    0.537426
      2          6           0       -3.599566    0.957633   -0.276414
      3          6           0       -1.161722   -0.708856   -0.041134
      4          6           0       -2.141034    1.426790   -0.266408
      5          6           0       -3.649686   -0.570684   -0.116826
      6          6           0        1.525358   -0.686818   -0.954604
      7          6           0        1.885782    0.613287    1.137870
      8          6           0        3.614870    0.600795   -0.441592
      9          8           0        3.285192    0.602717    0.941163
     10          6           0        3.044146   -0.622690   -1.138470
     11          8           0       -0.156346   -0.536978    0.920438
     12          6           0       -2.452383   -1.033518    0.707606
     13          8           0       -1.301390    0.438403   -0.856651
     14          1           0        1.639179   -1.509090    1.018369
     15          1           0       -4.088009    1.256830   -1.202893
     16          1           0       -4.130367    1.443306    0.543607
     17          1           0       -0.905815   -1.511354   -0.732012
     18          1           0       -2.003982    2.335601   -0.846817
     19          1           0       -1.799513    1.626096    0.752223
     20          1           0       -3.609333   -1.046571   -1.097812
     21          1           0       -4.582613   -0.880682    0.350044
     22          1           0        1.138385   -1.603306   -1.398152
     23          1           0        1.052861    0.156733   -1.459834
     24          1           0        1.710292    0.648389    2.211434
     25          1           0        1.440447    1.505928    0.678706
     26          1           0        3.225077    1.514973   -0.905913
     27          1           0        4.701072    0.620570   -0.497947
     28          1           0        3.293695   -0.587842   -2.198946
     29          1           0        3.510093   -1.517098   -0.719382
     30          1           0       -2.437374   -0.517892    1.669999
     31          1           0       -2.482266   -2.102329    0.911007
 ---------------------------------------------------------------------

 SCF Done:  E(RM062X) =  -617.492843309     A.U. after    1 cycles

 The electronic state is 1-A.
 Alpha  occ. eigenvalues --  -19.63207 -19.63125 -19.62792 -10.63550 -10.58851
 Alpha  occ. eigenvalues --  -10.58046 -10.57933 -10.57791 -10.53365 -10.53295
 Alpha  occ. eigenvalues --  -10.53180 -10.53139 -10.52860  -1.19739  -1.16687
 Alpha  occ. eigenvalues --   -1.13458  -0.90881  -0.89677  -0.87404  -0.84165
 Alpha  occ. eigenvalues --   -0.75426  -0.74556  -0.72781  -0.70121  -0.65889
 Alpha  occ. eigenvalues --   -0.62151  -0.60598  -0.59052  -0.57316  -0.56727
 Alpha  occ. eigenvalues --   -0.55501  -0.52992  -0.51856  -0.50478  -0.49279
 Alpha  occ. eigenvalues --   -0.47980  -0.46276  -0.45882  -0.45545  -0.44816
 Alpha  occ. eigenvalues --   -0.44059  -0.43359  -0.40790  -0.40515  -0.39147
 Alpha  occ. eigenvalues --   -0.38258  -0.37305  -0.36114  -0.35085  -0.33653
 Alpha  occ. eigenvalues --   -0.32130
 Alpha virt. eigenvalues --   -0.00115   0.00781   0.00870   0.00957   0.02174
 Alpha virt. eigenvalues --    0.02436   0.02588   0.03311   0.03669   0.04232
 Alpha virt. eigenvalues --    0.04585   0.05108   0.05582   0.05855   0.06987

 Mulliken charges:
               1
     1  C    0.040151
     2  C   -0.519461
     3  C   -0.166230
     4  C   -0.029969
     5  C   -0.219396
     6  C   -0.258662
     7  C   -0.203547
     8  C   -0.166442
     9  O   -0.349684
    10  C   -0.513250
    11  O   -0.318374
    12  C   -0.417658
    13  O   -0.279201
    14  H    0.246198
    15  H    0.161573
    16  H    0.151117
    17  H    0.269235
    18  H    0.201128
    19  H    0.140950
    20  H    0.155292
    21  H    0.199133
    22  H    0.161709
    23  H    0.269540
    24  H    0.197338
    25  H    0.178476
    26  H    0.137876
    27  H    0.209840
    28  H    0.168275
    29  H    0.177739
    30  H    0.200151
    31  H    0.176156
 Sum of Mulliken charges =  -0.00000

 Dipole moment (field-independent basis, Debye):
    X=             -1.8464    Y=             -0.6665    Z=             -1.6926  Tot=              2.5920
 Quadrupole moment (field-independent basis, Debye-Ang):
   XX=            -77.5980   YY=            -76.5560   ZZ=            -83.3362
   XY=             -2.4794   XZ=             -8.5522   YZ=              0.4702

  Exact polarizability: 177.137  -2.036 156.088  -1.930  -0.187 152.293
 Approx polarizability: 147.362  -2.577 141.865  -0.496  -0.572 142.879

 ******    1 imaginary frequencies (negative Signs) ******

                      1                      2                      3
                      A                      A                      A
 Frequencies --    -58.7594                55.6379                81.1287
 Red. masses --      3.8298                 4.0723                 3.2333
 Frc consts  --      0.0078                 0.0074                 0.0125
 IR Inten    --      0.3981                 1.7646                 4.6586

                      4                      5                      6
                      A                      A                      A
 Frequencies --    146.1175               158.4491               218.7554
 Red. masses --      2.8166                 2.8404                 1.9704
 Frc consts  --      0.0354                 0.0420                 0.0556
 IR Inten    --      0.2185                 1.6765                 2.9950

                      7                      8                      9
                      A                      A                      A
 Frequencies --    249.4051               268.8805               294.8103
 Red. masses --      2.0065                 3.8554                 3.1290
 Frc consts  --      0.0735                 0.1642                 0.1602
 IR Inten    --      5.6951                 0.7132                 6.0582

                     10                     11                     12
                      A                      A                      A
 Frequencies --    364.3111               370.0182               437.6352
 Red. masses --      2.7026                 2.6888                 3.2234
 Frc consts  --      0.2113                 0.2169                 0.3637
 IR Inten    --      4.9288                22.4866                 0.9847

                     13                     14                     15
                      A                      A                      A
 Frequencies --    455.8504               460.5281               496.1694
 Red. masses --      3.0933                 2.6671                 3.1631
 Frc consts  --      0.3787                 0.3333                 0.4588
 IR Inten    --      9.0927                 0.6984                 1.2303

                     16                     17                     18
                      A                      A                      A
 Frequencies --    549.5023               612.5943               630.6848
 Red. masses --      2.4323                 5.2413                 2.0216
 Frc consts  --      0.4327                 1.1589                 0.4738
 IR Inten    --      7.2285                10.4540                 9.9651

                     19                     20                     21
                      A                      A                      A
 Frequencies --    651.6943               782.7037               824.5694
 Red. masses --      3.2226                 1.2915                 2.1623
 Frc consts  --      0.8064                 0.4662                 0.8662
 IR Inten    --      6.6956                 4.9358                 2.3876

                     22                     23                     24
                      A                      A                      A
 Frequencies --    842.0394               879.0855               890.7790
 Red. masses --      2.5980                 1.4065                 2.6559
 Frc consts  --      1.0853                 0.6404                 1.2416
 IR Inten    --     14.3036                13.1487                16.8552

                     25                     26                     27
                      A                      A                      A
 Frequencies --    899.1182               920.0425               947.4821
 Red. masses --      2.4254                 2.1051                 2.2056
 Frc consts  --      1.1552                 1.0499                 1.1666
 IR Inten    --      3.9005                32.9409                29.0665

                     28                     29                     30
                      A                      A                      A
 Frequencies --    970.4487               979.3274               996.6894
 Red. masses --      1.9542                 2.2715                 1.6786
 Frc consts  --      1.0843                 1.2836                 0.9825
 IR Inten    --     17.4122                 3.6819                 8.2699

                     31                     32                     33
                      A                      A                      A
 Frequencies --   1008.2665              1048.8611              1062.4015
 Red. masses --      1.8513                 3.2970                 1.7299
 Frc consts  --      1.1088                 2.1370                 1.1504
 IR Inten    --      6.1591               167.4162                23.3624

                     34                     35                     36
                      A                      A                      A
 Frequencies --   1073.8035              1082.1032              1114.7746
 Red. masses --      1.7998                 2.2354                 4.2452
 Frc consts  --      1.2227                 1.5422                 3.1083
 IR Inten    --    126.9025                 7.4936               261.8813

                     37                     38                     39
                      A                      A                      A
 Frequencies --   1149.8722              1155.7570              1164.5896
 Red. masses --      2.5782                 2.9900                 3.7970
 Frc consts  --      2.0085                 2.3532                 3.0342
 IR Inten    --     20.4746               104.1731               281.3984

                     40                     41                     42
                      A                      A                      A
 Frequencies --   1172.2304              1188.8026              1210.5010
 Red. masses --      2.3175                 2.1868                 1.4313
 Frc consts  --      1.8762                 1.8209                 1.2357
 IR Inten    --     14.6031                13.0639                77.2713

                     43                     44                     45
                      A                      A                      A
 Frequencies --   1221.6001              1242.9772              1255.4064
 Red. masses --      1.6098                 1.6340                 1.4824
 Frc consts  --      1.4154                 1.4874                 1.3765
 IR Inten    --     29.4027                45.6872                 9.5505

                     46                     47                     48
                      A                      A                      A
 Frequencies --   1289.8590              1301.9873              1306.9645
 Red. masses --      1.2097                 1.1755                 1.1625
 Frc consts  --      1.1858                 1.1741                 1.1700
 IR Inten    --      2.6998                 9.6101                 9.3570

                     49                     50                     51
                      A                      A                      A
 Frequencies --   1328.4514              1342.4916              1353.2317
 Red. masses --      1.2683                 1.2714                 1.1954
 Frc consts  --      1.3187                 1.3501                 1.2898
 IR Inten    --      5.9992                 2.8104                 2.6320

                     52                     53                     54
                      A                      A                      A
 Frequencies --   1355.6616              1366.1096              1371.0179
 Red. masses --      1.3062                 1.4039                 1.4082
 Frc consts  --      1.4144                 1.5436                 1.5595
 IR Inten    --      9.2142                 1.8509                 0.2644

                     55                     56                     57
                      A                      A                      A
 Frequencies --   1383.5048              1399.1194              1406.3983
 Red. masses --      1.4420                 1.2535                 1.4246
 Frc consts  --      1.6262                 1.4457                 1.6601
 IR Inten    --     16.1008                 6.9817                 8.5960

                     58                     59                     60
                      A                      A                      A
 Frequencies --   1415.2182              1417.3062              1425.3724
 Red. masses --      1.4442                 1.3905                 1.3827
 Frc consts  --      1.7043                 1.6457                 1.6552
 IR Inten    --      0.8653                27.5909                22.6204

                     61                     62                     63
                      A                      A                      A
 Frequencies --   1429.9478              1481.7083              1487.8387
 Red. masses --      1.4373                 1.0934                 1.0785
 Frc consts  --      1.7316                 1.4144                 1.4066
 IR Inten    --     13.1646                10.0054                 2.4095

                     64                     65                     66
                      A                      A                      A
 Frequencies --   1493.0676              1498.0880              1501.4027
 Red. masses --      1.0953                 1.0961                 1.0949
 Frc consts  --      1.4386                 1.4494                 1.4541
 IR Inten    --      8.2794                 7.2363                 2.2531

                     67                     68                     69
                      A                      A                      A
 Frequencies --   1504.0609              1514.5470              1525.0123
 Red. masses --      1.0979                 1.1017                 1.0865
 Frc consts  --      1.4634                 1.4890                 1.4888
 IR Inten    --     10.4792                 8.3498                 3.6082

                     70                     71                     72
                      A                      A                      A
 Frequencies --   3013.0032              3019.6877              3043.6455
 Red. masses --      1.0694                 1.0706                 1.0834
 Frc consts  --      5.7200                 5.7519                 5.9135
 IR Inten    --     35.9926                81.8756                85.7363

                     73                     74                     75
                      A                      A                      A
 Frequencies --   3061.2944              3069.5187              3074.6015
 Red. masses --      1.0690                 1.0635                 1.0663
 Frc consts  --      5.9023                 5.9040                 5.9388
 IR Inten    --     41.0955                37.5959                16.0678

                     76                     77                     78
                      A                      A                      A
 Frequencies --   3078.1553              3081.7088              3082.0756
 Red. masses --      1.0628                 1.0629                 1.0613
 Frc consts  --      5.9331                 5.9473                 5.9397
 IR Inten    --     43.1637                62.2685                 1.6990

                     79                     80                     81
                      A                      A                      A
 Frequencies --   3106.9097              3116.4678              3120.1509
 Red. masses --      1.0861                 1.0993                 1.0993
 Frc consts  --      6.1770                 6.2906                 6.3056
 IR Inten    --     18.8719                32.3780                46.7043

                     82                     83                     84
                      A                      A                      A
 Frequencies --   3131.1496              3131.4206              3132.2879
 Red. masses --      1.1015                 1.0949                 1.1009
 Frc consts  --      6.3625                 6.3257                 6.3637
 IR Inten    --     36.7979                42.6474                29.0407

                     85                     86                     87
                      A                      A                      A
 Frequencies --   3134.7016              3136.6447              3143.8423
 Red. masses --      1.0976                 1.1000                 1.1001
 Frc consts  --      6.3546                 6.3764                 6.4060
 IR Inten    --     29.8137               104.8646                42.2801

 - Thermochemistry -
 -------------------
 Temperature   298.150 Kelvin.  Pressure   1.00000 Atm.
 Atom     1 has atomic number  6 and mass  12.00000

 Molecular mass:   186.12559 amu.
 Principal axes and moments of inertia in atomic units:
                           1         2         3
     Eigenvalues --   892.328924609.140974641.09117
           X            0.99993  -0.00142  -0.01163
           Y            0.00317   0.98831   0.15240
           Z            0.01128  -0.15243   0.98825
 This molecule is an asymmetric top.
 Rotational symmetry number  1.
 Warning -- assumption of classical behavior for rotation
           may cause significant error
 Rotational temperatures (Kelvin)      0.09707     0.01879     0.01866
 Rotational constants (GHZ):           2.02251     0.39156     0.38886
    1 imaginary frequencies ignored.
 Zero-point vibrational energy     736672.6 (Joules/Mol)
                                  176.06897 (Kcal/Mol)
 Warning -- explicit consideration of  16 degrees of freedom as
           vibrations may cause significant error
 Vibrational temperatures:     80.05   116.73   210.23   227.97   314.74
          (Kelvin)            358.84   386.86   424.17   524.16   532.37
                              629.66   655.87   662.60   713.88   790.61
                              881.39   907.41   937.64  1126.14  1186.37
                             1211.51  1264.81  1281.63  1293.63  1323.74
                             1363.22  1396.26  1409.03  1434.01  1450.67
                             1509.08  1528.56  1544.96  1556.91  1603.91
                             1654.41  1662.88  1675.58  1686.58  1710.42
                             1741.64  1757.61  1788.37  1806.25  1855.82
                             1873.27  1880.43  1911.35  1931.55  1947.00
                             1950.49  1965.53  1972.59  1990.55  2013.02
                             2023.49  2036.18  2039.19  2050.79  2057.38
                             2131.85  2140.67  2148.19  2155.41  2160.18
                             2164.01  2179.10  2194.15  4335.04  4344.66
                             4379.13  4404.52  4416.35  4423.67  4428.78
                             4433.89  4434.42  4470.15  4483.90  4489.20
                             4505.03  4505.42  4506.66  4510.14  4512.93
                             4523.29

 Zero-point correction=                           0.280584 (Hartree/Particle)
 Thermal correction to Energy=                    0.291627
 Thermal correction to Enthalpy=                  0.292571
 Thermal correction to Gibbs Free Energy=         0.243541
 Sum of electronic and zero-point Energies=           -617.212260
 Sum of electronic and thermal Energies=              -617.201216
 Sum of electronic and thermal Enthalpies=            -617.200272
 Sum of electronic and thermal Free Energies=         -617.249302

                     E (Thermal)             CV                S
                      KCal/Mol        Cal/Mol-Kelvin    Cal/Mol-Kelvin
 Total                  182.999             44.921            103.192
 Electronic               0.000              0.000              0.000
 Translational            0.889              2.981             41.570
 Rotational               0.889              2.981             31.324
 Vibrational            181.221             38.959             30.299
 Vibration     1          0.596              1.975              4.606
 Vibration     2          0.600              1.962              3.863
 Vibration     3          0.617              1.907              2.722
 Vibration     4          0.621              1.893              2.568
 Vibration     5          0.647              1.813              1.969
 Vibration     6          0.662              1.764              1.735
 Vibration     7          0.673              1.730              1.603
 Vibration     8          0.689              1.683              1.446
 Vibration     9          0.738              1.546              1.104
 Vibration    10          0.742              1.534              1.080
 Vibration    11          0.798              1.388              0.834
 Vibration    12          0.814              1.348              0.778
 Vibration    13          0.818              1.338              0.765
 Vibration    14          0.852              1.259              0.668
 Vibration    15          0.905              1.141              0.545
 Vibration    16          0.972              1.005              0.428

 Optimization completed.
    -- Stationary point found.
 Normal termination of Gaussian 16 at Mon Nov  5 01:15:16 2018.
