 Gaussian 16, Revision A.03,
 Gaussian 16:  ES64L-G16RevA.03 25-Dec-2016

 ----------------------------------------------------------------------
 #M062X/6-311++G(2d,2p) opt=ModRedundant freq=noraman SCRF=(Solvent=Wat
 er)
 ----------------------------------------------------------------------

 -----------------------------
 2SO_1_e4_D_PSI.inp_extract_13
 -----------------------------
 Symbolic Z-matrix:
 Charge =  0 Multiplicity = 1

 SCF Done:  E(RM062X) =  -617.493001284     A.U. after   12 cycles
 SCF Done:  E(RM062X) =  -617.494871636     A.U. after   11 cycles
 SCF Done:  E(RM062X) =  -617.495211673     A.U. after   10 cycles
 SCF Done:  E(RM062X) =  -617.495376103     A.U. after   10 cycles
 SCF Done:  E(RM062X) =  -617.495406018     A.U. after    9 cycles
 SCF Done:  E(RM062X) =  -617.495412275     A.U. after    9 cycles
 SCF Done:  E(RM062X) =  -617.495413184     A.U. after    8 cycles
 SCF Done:  E(RM062X) =  -617.495413439     A.U. after    7 cycles
 Optimization completed.
    -- Stationary point found.
 Normal termination of Gaussian 16 at Mon Nov  5 00:21:17 2018.

 ----------------------------------------------------------------------
 #N Geom=AllCheck Guess=TCheck SCRF=Check GenChk RM062X/6-311++G(2d,2p)
  Freq
 ----------------------------------------------------------------------

 Structure from the checkpoint file:  "2SO_1_e4_D_PSI.inp_extract_13.chk"
 -----------------------------
 2SO_1_e4_D_PSI.inp_extract_13
 -----------------------------
 Charge =  0 Multiplicity = 1

                         Standard orientation:
 ---------------------------------------------------------------------
 Center     Atomic      Atomic             Coordinates (Angstroms)
 Number     Number       Type             X           Y           Z
 ---------------------------------------------------------------------
      1          6           0        1.197013   -0.587720    0.706751
      2          6           0       -3.425811    1.043392   -0.359777
      3          6           0       -1.121783   -0.781338   -0.011407
      4          6           0       -1.944094    1.416042   -0.239611
      5          6           0       -3.581890   -0.483286   -0.269458
      6          6           0        1.610924   -1.077026   -0.675505
      7          6           0        1.616373    0.870605    0.879393
      8          6           0        3.437892    0.632224   -0.577365
      9          8           0        3.014353    1.026782    0.720844
     10          6           0        3.112323   -0.828532   -0.842777
     11          8           0       -0.190883   -0.686462    1.033372
     12          6           0       -2.483875   -1.055109    0.622571
     13          8           0       -1.133374    0.389217   -0.804634
     14          1           0        1.720728   -1.182785    1.458685
     15          1           0       -3.833949    1.409002   -1.301143
     16          1           0       -3.977365    1.530128    0.445737
     17          1           0       -0.847233   -1.578784   -0.701519
     18          1           0       -1.708948    2.329291   -0.780402
     19          1           0       -1.658822    1.562969    0.805262
     20          1           0       -3.495312   -0.922951   -1.264177
     21          1           0       -4.565680   -0.748965    0.112555
     22          1           0        1.383211   -2.136421   -0.797774
     23          1           0        1.065794   -0.521635   -1.441022
     24          1           0        1.365529    1.213742    1.881516
     25          1           0        1.076076    1.484304    0.148286
     26          1           0        2.947951    1.267706   -1.325375
     27          1           0        4.509686    0.814032   -0.618763
     28          1           0        3.430054   -1.094765   -1.850942
     29          1           0        3.675747   -1.450046   -0.143699
     30          1           0       -2.514363   -0.579706    1.604944
     31          1           0       -2.596313   -2.126923    0.774283
 ---------------------------------------------------------------------

 SCF Done:  E(RM062X) =  -617.495413439     A.U. after    1 cycles

 The electronic state is 1-A.
 Alpha  occ. eigenvalues --  -19.63273 -19.63018 -19.62922 -10.63532 -10.58768
 Alpha  occ. eigenvalues --  -10.58020 -10.57859 -10.57679 -10.53383 -10.53345
 Alpha  occ. eigenvalues --  -10.53207 -10.53168 -10.52899  -1.19920  -1.16520
 Alpha  occ. eigenvalues --   -1.13485  -0.90883  -0.89681  -0.87273  -0.84199
 Alpha  occ. eigenvalues --   -0.75426  -0.74519  -0.72901  -0.70108  -0.66003
 Alpha  occ. eigenvalues --   -0.61957  -0.60541  -0.59122  -0.57647  -0.56302
 Alpha  occ. eigenvalues --   -0.55324  -0.52905  -0.52037  -0.50466  -0.49245
 Alpha  occ. eigenvalues --   -0.48134  -0.46195  -0.46068  -0.45687  -0.44682
 Alpha  occ. eigenvalues --   -0.44049  -0.43113  -0.40753  -0.40529  -0.38940
 Alpha  occ. eigenvalues --   -0.38190  -0.37673  -0.36130  -0.35645  -0.33731
 Alpha  occ. eigenvalues --   -0.31733
 Alpha virt. eigenvalues --   -0.00117   0.00772   0.00898   0.00970   0.02211
 Alpha virt. eigenvalues --    0.02499   0.02620   0.03379   0.03572   0.04301
 Alpha virt. eigenvalues --    0.04679   0.05061   0.05683   0.05874   0.07106

 Mulliken charges:
               1
     1  C    0.131434
     2  C   -0.547918
     3  C   -0.237356
     4  C   -0.010562
     5  C   -0.223473
     6  C   -0.256771
     7  C   -0.338902
     8  C   -0.179143
     9  O   -0.339764
    10  C   -0.443535
    11  O   -0.326094
    12  C   -0.385987
    13  O   -0.290844
    14  H    0.264758
    15  H    0.162413
    16  H    0.151676
    17  H    0.253712
    18  H    0.206543
    19  H    0.141122
    20  H    0.153633
    21  H    0.200310
    22  H    0.165316
    23  H    0.259222
    24  H    0.194097
    25  H    0.217158
    26  H    0.137447
    27  H    0.216981
    28  H    0.166709
    29  H    0.178700
    30  H    0.196596
    31  H    0.182523
 Sum of Mulliken charges =  -0.00000

 Dipole moment (field-independent basis, Debye):
    X=             -1.7542    Y=             -1.0362    Z=             -1.6612  Tot=              2.6287
 Quadrupole moment (field-independent basis, Debye-Ang):
   XX=            -76.0989   YY=            -77.9442   ZZ=            -83.1700
   XY=             -5.1592   XZ=             -6.6719   YZ=              0.2833

  Exact polarizability: 176.507  -1.916 157.417  -1.408   0.157 150.542
 Approx polarizability: 147.342  -1.802 141.631  -0.200  -0.089 143.040

                      1                      2                      3
                      A                      A                      A
 Frequencies --     45.5386                64.7795                85.7817
 Red. masses --      3.9781                 3.3492                 3.5789
 Frc consts  --      0.0049                 0.0083                 0.0155
 IR Inten    --      0.2476                 1.8570                 3.1808

                      4                      5                      6
                      A                      A                      A
 Frequencies --    138.3418               174.3823               213.5467
 Red. masses --      2.7193                 2.9853                 1.9349
 Frc consts  --      0.0307                 0.0535                 0.0520
 IR Inten    --      1.0373                 1.8961                 2.7474

                      7                      8                      9
                      A                      A                      A
 Frequencies --    258.4715               270.5924               316.4220
 Red. masses --      2.0720                 3.5560                 2.9430
 Frc consts  --      0.0816                 0.1534                 0.1736
 IR Inten    --      5.6392                 1.1445                 9.7458

                     10                     11                     12
                      A                      A                      A
 Frequencies --    355.2404               371.5377               439.8653
 Red. masses --      3.2100                 2.5048                 2.8139
 Frc consts  --      0.2387                 0.2037                 0.3208
 IR Inten    --     24.7033                 5.3895                 0.7058

                     13                     14                     15
                      A                      A                      A
 Frequencies --    450.9680               464.1698               485.8432
 Red. masses --      3.3679                 3.2178                 3.2930
 Frc consts  --      0.4036                 0.4085                 0.4580
 IR Inten    --      9.9054                 0.5326                 1.1280

                     16                     17                     18
                      A                      A                      A
 Frequencies --    554.6255               628.5781               634.3336
 Red. masses --      2.1279                 3.9120                 2.1677
 Frc consts  --      0.3856                 0.9107                 0.5139
 IR Inten    --      5.3235                17.7306                 2.9872

                     19                     20                     21
                      A                      A                      A
 Frequencies --    658.6128               782.1932               824.8644
 Red. masses --      4.0039                 1.2944                 2.1662
 Frc consts  --      1.0233                 0.4666                 0.8684
 IR Inten    --      3.5477                 5.7973                 2.4911

                     22                     23                     24
                      A                      A                      A
 Frequencies --    841.8386               884.0651               889.6572
 Red. masses --      2.5837                 1.3707                 2.6959
 Frc consts  --      1.0788                 0.6312                 1.2572
 IR Inten    --     10.5453                11.0831                 8.7677

                     25                     26                     27
                      A                      A                      A
 Frequencies --    897.0831               922.0544               949.4278
 Red. masses --      2.4159                 2.1205                 2.3365
 Frc consts  --      1.1455                 1.0622                 1.2409
 IR Inten    --      7.3988                31.2999                31.8376

                     28                     29                     30
                      A                      A                      A
 Frequencies --    969.5328               979.1287               995.2591
 Red. masses --      1.8286                 2.4305                 1.5620
 Frc consts  --      1.0127                 1.3728                 0.9116
 IR Inten    --     18.4943                10.2911                11.7542

                     31                     32                     33
                      A                      A                      A
 Frequencies --   1008.5106              1044.3294              1057.0643
 Red. masses --      1.9228                 2.9876                 1.7275
 Frc consts  --      1.1522                 1.9197                 1.1373
 IR Inten    --      4.9667               153.1183                14.5689

                     34                     35                     36
                      A                      A                      A
 Frequencies --   1072.4724              1083.5096              1113.7625
 Red. masses --      1.8032                 2.2954                 4.2005
 Frc consts  --      1.2220                 1.5877                 3.0700
 IR Inten    --    134.3619                 8.1088               232.6681

                     37                     38                     39
                      A                      A                      A
 Frequencies --   1147.2107              1153.1924              1166.9365
 Red. masses --      2.7969                 2.8365                 3.9935
 Frc consts  --      2.1688                 2.2225                 3.2041
 IR Inten    --     28.0321                74.5063               302.9231

                     40                     41                     42
                      A                      A                      A
 Frequencies --   1168.1376              1191.4469              1209.7592
 Red. masses --      2.3107                 2.1845                 1.3834
 Frc consts  --      1.8577                 1.8270                 1.1929
 IR Inten    --     23.9084                20.1004                42.1248

                     43                     44                     45
                      A                      A                      A
 Frequencies --   1221.4228              1242.3308              1254.4650
 Red. masses --      1.5584                 1.6306                 1.5577
 Frc consts  --      1.3698                 1.4827                 1.4443
 IR Inten    --     13.6422                47.9282                14.2366

                     46                     47                     48
                      A                      A                      A
 Frequencies --   1289.9423              1306.3994              1309.1673
 Red. masses --      1.2057                 1.1755                 1.1975
 Frc consts  --      1.1821                 1.1820                 1.2092
 IR Inten    --      3.1476                 2.9076                18.4237

                     49                     50                     51
                      A                      A                      A
 Frequencies --   1327.0854              1345.3052              1349.2535
 Red. masses --      1.2567                 1.2985                 1.2586
 Frc consts  --      1.3040                 1.3846                 1.3499
 IR Inten    --      9.9399                 6.7961                 2.8401

                     52                     53                     54
                      A                      A                      A
 Frequencies --   1361.1687              1366.3679              1370.7059
 Red. masses --      1.2550                 1.4196                 1.3785
 Frc consts  --      1.3700                 1.5615                 1.5259
 IR Inten    --      8.1494                 0.6458                 0.3813

                     55                     56                     57
                      A                      A                      A
 Frequencies --   1384.2863              1399.3367              1401.4865
 Red. masses --      1.4264                 1.4243                 1.2498
 Frc consts  --      1.6104                 1.6432                 1.4464
 IR Inten    --     11.0424                 8.7289                 8.5862

                     58                     59                     60
                      A                      A                      A
 Frequencies --   1414.4443              1416.5606              1426.3560
 Red. masses --      1.4398                 1.3922                 1.4380
 Frc consts  --      1.6971                 1.6460                 1.7237
 IR Inten    --      6.4478                22.5931                 5.4847

                     61                     62                     63
                      A                      A                      A
 Frequencies --   1429.7106              1481.8276              1487.5671
 Red. masses --      1.3530                 1.0945                 1.0782
 Frc consts  --      1.6294                 1.4161                 1.4057
 IR Inten    --     29.1197                 9.4150                 2.2742

                     64                     65                     66
                      A                      A                      A
 Frequencies --   1493.7579              1499.5890              1500.9375
 Red. masses --      1.0954                 1.0884                 1.0991
 Frc consts  --      1.4400                 1.4421                 1.4589
 IR Inten    --      8.3514                 3.9327                 1.7000

                     67                     68                     69
                      A                      A                      A
 Frequencies --   1502.8557              1514.8783              1521.7410
 Red. masses --      1.0992                 1.1013                 1.0874
 Frc consts  --      1.4627                 1.4891                 1.4836
 IR Inten    --     11.8073                 8.4380                 3.8063

                     70                     71                     72
                      A                      A                      A
 Frequencies --   3018.3100              3029.9630              3058.4127
 Red. masses --      1.0705                 1.0679                 1.0692
 Frc consts  --      5.7461                 5.7766                 5.8923
 IR Inten    --     66.9086                46.0807                40.3077

                     73                     74                     75
                      A                      A                      A
 Frequencies --   3066.3825              3070.7877              3073.6863
 Red. masses --      1.0801                 1.0633                 1.0633
 Frc consts  --      5.9836                 5.9076                 5.9187
 IR Inten    --     37.4949                28.3562                52.4322

                     76                     77                     78
                      A                      A                      A
 Frequencies --   3075.6624              3078.5446              3082.9235
 Red. masses --      1.0664                 1.0629                 1.0633
 Frc consts  --      5.9434                 5.9351                 5.9542
 IR Inten    --     18.8125                38.5584                40.4271

                     79                     80                     81
                      A                      A                      A
 Frequencies --   3105.2871              3117.0026              3117.3751
 Red. masses --      1.0852                 1.0992                 1.1011
 Frc consts  --      6.1656                 6.2925                 6.3046
 IR Inten    --     33.2470                34.0712                31.4455

                     82                     83                     84
                      A                      A                      A
 Frequencies --   3124.4496              3131.0263              3132.1632
 Red. masses --      1.1043                 1.0961                 1.1013
 Frc consts  --      6.3517                 6.3309                 6.3657
 IR Inten    --     47.7029                38.3607                51.1657

                     85                     86                     87
                      A                      A                      A
 Frequencies --   3133.7935              3136.2965              3142.6586
 Red. masses --      1.0962                 1.0997                 1.1001
 Frc consts  --      6.3428                 6.3733                 6.4015
 IR Inten    --     44.4622                64.4935                42.1757

 - Thermochemistry -
 -------------------
 Temperature   298.150 Kelvin.  Pressure   1.00000 Atm.
 Atom     1 has atomic number  6 and mass  12.00000

 Molecular mass:   186.12559 amu.
 Principal axes and moments of inertia in atomic units:
                           1         2         3
     Eigenvalues --   941.152164214.904194447.40353
           X            0.99993  -0.00742  -0.00946
           Y            0.00760   0.99979   0.01926
           Z            0.00932  -0.01933   0.99977
 This molecule is an asymmetric top.
 Rotational symmetry number  1.
 Warning -- assumption of classical behavior for rotation
           may cause significant error
 Rotational temperatures (Kelvin)      0.09203     0.02055     0.01948
 Rotational constants (GHZ):           1.91759     0.42818     0.40580
 Zero-point vibrational energy     737358.7 (Joules/Mol)
                                  176.23295 (Kcal/Mol)
 Warning -- explicit consideration of  16 degrees of freedom as
           vibrations may cause significant error
 Vibrational temperatures:     65.52    93.20   123.42   199.04   250.90
          (Kelvin)            307.25   371.88   389.32   455.26   511.11
                              534.56   632.87   648.84   667.84   699.02
                              797.98   904.38   912.66   947.60  1125.40
                             1186.80  1211.22  1271.97  1280.02  1290.70
                             1326.63  1366.01  1394.94  1408.75  1431.96
                             1451.02  1502.56  1520.88  1543.05  1558.93
                             1602.46  1650.58  1659.19  1678.96  1680.69
                             1714.23  1740.57  1757.35  1787.44  1804.90
                             1855.94  1879.62  1883.60  1909.38  1935.59
                             1941.27  1958.42  1965.90  1972.14  1991.68
                             2013.33  2016.43  2035.07  2038.11  2052.21
                             2057.03  2132.02  2140.28  2149.18  2157.57
                             2159.51  2162.27  2179.57  2189.45  4342.67
                             4359.44  4400.37  4411.84  4418.18  4422.35
                             4425.19  4429.34  4435.64  4467.82  4484.67
                             4485.21  4495.39  4504.85  4506.48  4508.83
                             4512.43  4521.58

 Zero-point correction=                           0.280845 (Hartree/Particle)
 Thermal correction to Energy=                    0.292657
 Thermal correction to Enthalpy=                  0.293601
 Thermal correction to Gibbs Free Energy=         0.242529
 Sum of electronic and zero-point Energies=           -617.214568
 Sum of electronic and thermal Energies=              -617.202756
 Sum of electronic and thermal Enthalpies=            -617.201812
 Sum of electronic and thermal Free Energies=         -617.252885

                     E (Thermal)             CV                S
                      KCal/Mol        Cal/Mol-Kelvin    Cal/Mol-Kelvin
 Total                  183.645             46.809            107.491
 Electronic               0.000              0.000              0.000
 Translational            0.889              2.981             41.570
 Rotational               0.889              2.981             31.246
 Vibrational            181.868             40.847             34.676
 Vibration     1          0.595              1.979              5.002
 Vibration     2          0.597              1.971              4.306
 Vibration     3          0.601              1.959              3.754
 Vibration     4          0.614              1.915              2.827
 Vibration     5          0.627              1.874              2.388
 Vibration     6          0.644              1.820              2.013
 Vibration     7          0.667              1.748              1.672
 Vibration     8          0.674              1.727              1.592
 Vibration     9          0.703              1.642              1.329
 Vibration    10          0.731              1.564              1.143
 Vibration    11          0.743              1.531              1.073
 Vibration    12          0.800              1.383              0.827
 Vibration    13          0.810              1.359              0.793
 Vibration    14          0.822              1.330              0.754
 Vibration    15          0.842              1.281              0.694
 Vibration    16          0.910              1.130              0.535

                           ! Non-Optimized Parameters !
 Normal termination of Gaussian 16 at Mon Nov  5 01:13:02 2018.
