 Gaussian 16, Revision A.03,
 Gaussian 16:  ES64L-G16RevA.03 25-Dec-2016

 ----------------------------------------------------------------------
 #M062X/6-311++G(2d,2p) opt=ModRedundant freq=noraman SCRF=(Solvent=Wat
 er)
 ----------------------------------------------------------------------

 -----------------------------
 2SO_1_e4_D_PSI.inp_extract_21
 -----------------------------
 Symbolic Z-matrix:
 Charge =  0 Multiplicity = 1

 SCF Done:  E(RM062X) =  -617.496438659     A.U. after   12 cycles
 SCF Done:  E(RM062X) =  -617.498193008     A.U. after   10 cycles
 SCF Done:  E(RM062X) =  -617.498595210     A.U. after   10 cycles
 SCF Done:  E(RM062X) =  -617.498683608     A.U. after   10 cycles
 SCF Done:  E(RM062X) =  -617.498709378     A.U. after    9 cycles
 SCF Done:  E(RM062X) =  -617.498715802     A.U. after    8 cycles
 SCF Done:  E(RM062X) =  -617.498716729     A.U. after    8 cycles
 SCF Done:  E(RM062X) =  -617.498716841     A.U. after    7 cycles
 Optimization completed.
    -- Stationary point found.
 Normal termination of Gaussian 16 at Mon Nov  5 01:25:33 2018.

 ----------------------------------------------------------------------
 #N Geom=AllCheck Guess=TCheck SCRF=Check GenChk RM062X/6-311++G(2d,2p)
  Freq
 ----------------------------------------------------------------------

 Structure from the checkpoint file:  "2SO_1_e4_D_PSI.inp_extract_21.chk"
 -----------------------------
 2SO_1_e4_D_PSI.inp_extract_21
 -----------------------------
 Charge =  0 Multiplicity = 1

                         Standard orientation:
 ---------------------------------------------------------------------
 Center     Atomic      Atomic             Coordinates (Angstroms)
 Number     Number       Type             X           Y           Z
 ---------------------------------------------------------------------
      1          6           0        1.099171   -0.336416   -0.205560
      2          6           0       -3.642123    0.887464    0.282965
      3          6           0       -1.246828   -0.681211   -0.449380
      4          6           0       -2.187963    1.368697    0.215906
      5          6           0       -3.714601   -0.594393   -0.118880
      6          6           0        1.447476    1.063435    0.281745
      7          6           0        2.190869   -1.318168    0.200919
      8          6           0        3.842406    0.352151    0.226596
      9          8           0        3.455811   -0.916185   -0.288198
     10          6           0        2.856667    1.434550   -0.181490
     11          8           0       -0.112600   -0.808726    0.370123
     12          6           0       -2.426514   -1.299142    0.297113
     13          8           0       -1.486299    0.661690   -0.803962
     14          1           0        1.014948   -0.336802   -1.297567
     15          1           0       -4.271277    1.486794   -0.373750
     16          1           0       -4.010754    1.022912    1.300631
     17          1           0       -1.065574   -1.184793   -1.402719
     18          1           0       -2.119186    2.424036   -0.035533
     19          1           0       -1.678221    1.217676    1.170838
     20          1           0       -3.831244   -0.678211   -1.200269
     21          1           0       -4.579592   -1.074942    0.334063
     22          1           0        0.707751    1.778217   -0.074582
     23          1           0        1.407789    1.057405    1.375131
     24          1           0        1.984816   -2.305013   -0.209158
     25          1           0        2.212469   -1.390094    1.295975
     26          1           0        3.904898    0.292543    1.320175
     27          1           0        4.837662    0.549304   -0.165931
     28          1           0        3.164232    2.388925    0.246370
     29          1           0        2.877297    1.539081   -1.268582
     30          1           0       -2.262897   -1.175677    1.369550
     31          1           0       -2.459767   -2.367395    0.092048
 ---------------------------------------------------------------------

 SCF Done:  E(RM062X) =  -617.498716841     A.U. after    1 cycles

 The electronic state is 1-A.
 Alpha  occ. eigenvalues --  -19.63377 -19.63111 -19.63064 -10.63672 -10.58643
 Alpha  occ. eigenvalues --  -10.58015 -10.58012 -10.57916 -10.53248 -10.53209
 Alpha  occ. eigenvalues --  -10.53170 -10.52944 -10.52873  -1.20237  -1.16630
 Alpha  occ. eigenvalues --   -1.13736  -0.90895  -0.89658  -0.87245  -0.84135
 Alpha  occ. eigenvalues --   -0.75230  -0.74065  -0.73146  -0.70261  -0.65679
 Alpha  occ. eigenvalues --   -0.62686  -0.60096  -0.59214  -0.58466  -0.56678
 Alpha  occ. eigenvalues --   -0.55114  -0.52781  -0.52334  -0.49343  -0.48977
 Alpha  occ. eigenvalues --   -0.48081  -0.47735  -0.46046  -0.45432  -0.44325
 Alpha  occ. eigenvalues --   -0.44244  -0.42151  -0.40908  -0.40589  -0.39194
 Alpha  occ. eigenvalues --   -0.38406  -0.38000  -0.35969  -0.35417  -0.34177
 Alpha  occ. eigenvalues --   -0.31882
 Alpha virt. eigenvalues --   -0.00063   0.00744   0.00824   0.01103   0.02138
 Alpha virt. eigenvalues --    0.02479   0.02572   0.03549   0.03674   0.04207
 Alpha virt. eigenvalues --    0.04658   0.04902   0.05538   0.05784   0.06946

 Mulliken charges:
               1
     1  C    0.105451
     2  C   -0.580672
     3  C   -0.308403
     4  C    0.039990
     5  C   -0.209824
     6  C   -0.295234
     7  C   -0.302707
     8  C   -0.202693
     9  O   -0.332821
    10  C   -0.359413
    11  O   -0.276602
    12  C   -0.307083
    13  O   -0.287959
    14  H    0.236370
    15  H    0.163431
    16  H    0.153424
    17  H    0.232065
    18  H    0.216086
    19  H    0.129014
    20  H    0.159077
    21  H    0.192142
    22  H    0.166582
    23  H    0.223593
    24  H    0.196652
    25  H    0.184618
    26  H    0.138601
    27  H    0.211271
    28  H    0.174581
    29  H    0.166021
    30  H    0.195213
    31  H    0.179231
 Sum of Mulliken charges =  -0.00000

 Dipole moment (field-independent basis, Debye):
    X=             -1.9636    Y=              1.4031    Z=              1.1665  Tot=              2.6806
 Quadrupole moment (field-independent basis, Debye-Ang):
   XX=            -77.8741   YY=            -78.3122   ZZ=            -81.4589
   XY=              6.8998   XZ=              1.2824   YZ=              2.2789

  Exact polarizability: 176.535   2.044 161.441  -0.243   1.349 147.849
 Approx polarizability: 145.925   0.907 143.651  -0.740   0.735 142.621

                      1                      2                      3
                      A                      A                      A
 Frequencies --     39.6632                55.4208                87.1791
 Red. masses --      3.3619                 4.0162                 3.5135
 Frc consts  --      0.0031                 0.0073                 0.0157
 IR Inten    --      0.5292                 0.8826                 1.0335

                      4                      5                      6
                      A                      A                      A
 Frequencies --    113.6980               198.2378               206.2020
 Red. masses --      2.9829                 2.2841                 2.3102
 Frc consts  --      0.0227                 0.0529                 0.0579
 IR Inten    --      4.2144                 0.9010                 1.4828

                      7                      8                      9
                      A                      A                      A
 Frequencies --    243.9238               268.7746               291.9436
 Red. masses --      2.0227                 4.2846                 2.4541
 Frc consts  --      0.0709                 0.1824                 0.1232
 IR Inten    --      4.6585                 0.7167                 3.4422

                     10                     11                     12
                      A                      A                      A
 Frequencies --    346.5250               382.7890               438.8434
 Red. masses --      3.4103                 2.3214                 3.8452
 Frc consts  --      0.2413                 0.2004                 0.4363
 IR Inten    --     23.0899                11.6980                 3.4068

                     13                     14                     15
                      A                      A                      A
 Frequencies --    448.1318               476.8445               508.1559
 Red. masses --      2.5885                 3.2282                 2.6234
 Frc consts  --      0.3063                 0.4325                 0.3991
 IR Inten    --      5.9655                 0.9844                 6.0439

                     16                     17                     18
                      A                      A                      A
 Frequencies --    546.8045               618.0532               636.1455
 Red. masses --      3.5385                 2.6552                 1.9968
 Frc consts  --      0.6234                 0.5976                 0.4761
 IR Inten    --      1.1409                13.0211                 5.5019

                     19                     20                     21
                      A                      A                      A
 Frequencies --    659.0098               785.4004               830.5761
 Red. masses --      4.3637                 1.3002                 2.2189
 Frc consts  --      1.1166                 0.4726                 0.9019
 IR Inten    --      9.5485                 6.0952                 0.6774

                     22                     23                     24
                      A                      A                      A
 Frequencies --    841.8017               875.7100               894.5106
 Red. masses --      2.5908                 1.3944                 2.5982
 Frc consts  --      1.0817                 0.6300                 1.2249
 IR Inten    --      7.5962                12.6001                 9.6721

                     25                     26                     27
                      A                      A                      A
 Frequencies --    900.2206               923.2343               942.4097
 Red. masses --      2.3651                 2.1459                 2.2640
 Frc consts  --      1.1293                 1.0777                 1.1847
 IR Inten    --      8.3553                36.3534                51.8455

                     28                     29                     30
                      A                      A                      A
 Frequencies --    966.8066               986.5043               995.7404
 Red. masses --      1.8122                 2.2680                 1.4685
 Frc consts  --      0.9980                 1.3004                 0.8579
 IR Inten    --     12.4292                34.6411                 3.9461

                     31                     32                     33
                      A                      A                      A
 Frequencies --   1008.1665              1054.5211              1071.8892
 Red. masses --      2.0064                 1.6826                 1.9517
 Frc consts  --      1.2015                 1.1024                 1.3212
 IR Inten    --      6.3941                 7.0709               178.9946

                     34                     35                     36
                      A                      A                      A
 Frequencies --   1080.6527              1083.0756              1112.1890
 Red. masses --      3.5121                 2.2755                 4.2997
 Frc consts  --      2.4165                 1.5727                 3.1336
 IR Inten    --     92.2485                 1.2644               275.2872

                     37                     38                     39
                      A                      A                      A
 Frequencies --   1149.4378              1155.5149              1159.7278
 Red. masses --      2.5991                 2.6633                 3.7080
 Frc consts  --      2.0233                 2.0952                 2.9383
 IR Inten    --     24.3402                53.0606               304.3693

                     40                     41                     42
                      A                      A                      A
 Frequencies --   1169.8766              1191.5184              1209.9244
 Red. masses --      2.3199                 2.2335                 1.4755
 Frc consts  --      1.8707                 1.8682                 1.2726
 IR Inten    --     17.7274                47.3237                15.0514

                     43                     44                     45
                      A                      A                      A
 Frequencies --   1220.8956              1244.9627              1247.3792
 Red. masses --      1.5210                 1.6714                 1.5004
 Frc consts  --      1.3358                 1.5263                 1.3755
 IR Inten    --      7.7391                53.5152                24.5200

                     46                     47                     48
                      A                      A                      A
 Frequencies --   1291.1106              1304.2902              1309.6423
 Red. masses --      1.1998                 1.1877                 1.1779
 Frc consts  --      1.1784                 1.1904                 1.1903
 IR Inten    --      2.8300                24.1630                 9.8801

                     49                     50                     51
                      A                      A                      A
 Frequencies --   1329.3950              1338.1581              1343.9150
 Red. masses --      1.3071                 1.2334                 1.2762
 Frc consts  --      1.3611                 1.3013                 1.3581
 IR Inten    --      8.8931                 5.4361                 9.3420

                     52                     53                     54
                      A                      A                      A
 Frequencies --   1356.7127              1367.6446              1372.9085
 Red. masses --      1.2638                 1.4180                 1.3888
 Frc consts  --      1.3706                 1.5627                 1.5423
 IR Inten    --     14.2027                 1.5767                 1.4662

                     55                     56                     57
                      A                      A                      A
 Frequencies --   1382.4197              1391.2142              1400.5175
 Red. masses --      1.4442                 1.4986                 1.3513
 Frc consts  --      1.6262                 1.7090                 1.5617
 IR Inten    --      6.3618                21.6734                33.8451

                     58                     59                     60
                      A                      A                      A
 Frequencies --   1406.8079              1419.8145              1430.1684
 Red. masses --      1.3660                 1.4103                 1.3442
 Frc consts  --      1.5928                 1.6750                 1.6199
 IR Inten    --     11.1333                 5.1665                20.3461

                     61                     62                     63
                      A                      A                      A
 Frequencies --   1443.8115              1480.0415              1488.7923
 Red. masses --      1.4517                 1.0905                 1.0784
 Frc consts  --      1.7830                 1.4074                 1.4083
 IR Inten    --      4.4038                 8.1644                 2.9461

                     64                     65                     66
                      A                      A                      A
 Frequencies --   1493.7016              1494.2459              1501.0315
 Red. masses --      1.0959                 1.1113                 1.0871
 Frc consts  --      1.4406                 1.4619                 1.4431
 IR Inten    --     11.0108                 8.0662                 0.7292

                     67                     68                     69
                      A                      A                      A
 Frequencies --   1504.0290              1513.0422              1522.6406
 Red. masses --      1.0987                 1.1018                 1.0872
 Frc consts  --      1.4644                 1.4861                 1.4850
 IR Inten    --     10.1199                 8.8352                 3.7174

                     70                     71                     72
                      A                      A                      A
 Frequencies --   3015.1211              3018.5315              3043.6463
 Red. masses --      1.0695                 1.0704                 1.0807
 Frc consts  --      5.7283                 5.7466                 5.8988
 IR Inten    --     32.5368                97.0154                16.9313

                     73                     74                     75
                      A                      A                      A
 Frequencies --   3057.7749              3059.8453              3062.8429
 Red. masses --      1.0710                 1.0759                 1.0777
 Frc consts  --      5.8998                 5.9348                 5.9564
 IR Inten    --     26.3848               112.7906                14.9687

                     76                     77                     78
                      A                      A                      A
 Frequencies --   3069.2610              3076.0748              3078.9909
 Red. masses --      1.0621                 1.0666                 1.0620
 Frc consts  --      5.8949                 5.9461                 5.9321
 IR Inten    --     56.4760                10.6040                45.0952

                     79                     80                     81
                      A                      A                      A
 Frequencies --   3083.0731              3117.3649              3118.3064
 Red. masses --      1.0632                 1.0994                 1.1005
 Frc consts  --      5.9541                 6.2948                 6.3050
 IR Inten    --     44.8065                32.6332                47.6439

                     82                     83                     84
                      A                      A                      A
 Frequencies --   3129.7114              3131.1138              3131.6150
 Red. masses --      1.0949                 1.0970                 1.0997
 Frc consts  --      6.3185                 6.3366                 6.3543
 IR Inten    --     46.5768                55.0308                23.3764

                     85                     86                     87
                      A                      A                      A
 Frequencies --   3133.4691              3135.8154              3143.7617
 Red. masses --      1.0973                 1.1002                 1.1003
 Frc consts  --      6.3481                 6.3743                 6.4070
 IR Inten    --     39.4991                49.6392                41.7963

 - Thermochemistry -
 -------------------
 Temperature   298.150 Kelvin.  Pressure   1.00000 Atm.
 Atom     1 has atomic number  6 and mass  12.00000

 Molecular mass:   186.12559 amu.
 Principal axes and moments of inertia in atomic units:
                           1         2         3
     Eigenvalues --   839.831604535.121085093.41009
           X            0.99995   0.00967   0.00024
           Y           -0.00967   0.99989   0.01152
           Z           -0.00013  -0.01152   0.99993
 This molecule is an asymmetric top.
 Rotational symmetry number  1.
 Warning -- assumption of classical behavior for rotation
           may cause significant error
 Rotational temperatures (Kelvin)      0.10313     0.01910     0.01701
 Rotational constants (GHZ):           2.14893     0.39795     0.35433
 Zero-point vibrational energy     736668.6 (Joules/Mol)
                                  176.06801 (Kcal/Mol)
 Warning -- explicit consideration of  17 degrees of freedom as
           vibrations may cause significant error
 Vibrational temperatures:     57.07    79.74   125.43   163.59   285.22
          (Kelvin)            296.68   350.95   386.71   420.04   498.57
                              550.75   631.40   644.76   686.07   731.12
                              786.73   889.24   915.27   948.17  1130.02
                             1195.01  1211.16  1259.95  1287.00  1295.22
                             1328.33  1355.92  1391.02  1419.36  1432.65
                             1450.53  1517.22  1542.21  1554.82  1558.30
                             1600.19  1653.78  1662.53  1668.59  1683.19
                             1714.33  1740.81  1756.60  1791.22  1794.70
                             1857.62  1876.58  1884.28  1912.70  1925.31
                             1933.59  1952.01  1967.74  1975.31  1988.99
                             2001.65  2015.03  2024.08  2042.80  2057.69
                             2077.32  2129.45  2142.04  2149.10  2149.89
                             2159.65  2163.96  2176.93  2190.74  4338.09
                             4342.99  4379.13  4399.46  4402.43  4406.75
                             4415.98  4425.79  4429.98  4435.85  4485.19
                             4486.55  4502.96  4504.97  4505.70  4508.36
                             4511.74  4523.17

 Zero-point correction=                           0.280582 (Hartree/Particle)
 Thermal correction to Energy=                    0.292473
 Thermal correction to Enthalpy=                  0.293417
 Thermal correction to Gibbs Free Energy=         0.241857
 Sum of electronic and zero-point Energies=           -617.218135
 Sum of electronic and thermal Energies=              -617.206244
 Sum of electronic and thermal Enthalpies=            -617.205299
 Sum of electronic and thermal Free Energies=         -617.256859

                     E (Thermal)             CV                S
                      KCal/Mol        Cal/Mol-Kelvin    Cal/Mol-Kelvin
 Total                  183.530             46.818            108.517
 Electronic               0.000              0.000              0.000
 Translational            0.889              2.981             41.570
 Rotational               0.889              2.981             31.340
 Vibrational            181.752             40.857             35.607
 Vibration     1          0.594              1.981              5.276
 Vibration     2          0.596              1.975              4.614
 Vibration     3          0.601              1.958              3.722
 Vibration     4          0.607              1.938              3.205
 Vibration     5          0.637              1.842              2.149
 Vibration     6          0.641              1.831              2.077
 Vibration     7          0.659              1.773              1.774
 Vibration     8          0.673              1.731              1.604
 Vibration     9          0.687              1.689              1.463
 Vibration    10          0.725              1.582              1.182
 Vibration    11          0.752              1.507              1.028
 Vibration    12          0.799              1.385              0.830
 Vibration    13          0.807              1.365              0.801
 Vibration    14          0.833              1.301              0.719
 Vibration    15          0.863              1.232              0.638
 Vibration    16          0.902              1.147              0.551
 Vibration    17          0.978              0.994              0.420

 Optimization completed.
    -- Stationary point found.
 Normal termination of Gaussian 16 at Mon Nov  5 02:24:17 2018.
