 Gaussian 16, Revision A.03,
 Gaussian 16:  ES64L-G16RevA.03 25-Dec-2016

 ----------------------------------------------------------------------
 #M062X/6-311++G(2d,2p) opt=ModRedundant freq=noraman SCRF=(Solvent=Wat
 er)
 ----------------------------------------------------------------------

 -----------------------------
 2SO_1_e4_D_PSI.inp_extract_19
 -----------------------------
 Symbolic Z-matrix:
 Charge =  0 Multiplicity = 1

 SCF Done:  E(RM062X) =  -617.495576408     A.U. after   12 cycles
 SCF Done:  E(RM062X) =  -617.497169360     A.U. after   10 cycles
 SCF Done:  E(RM062X) =  -617.497371555     A.U. after   10 cycles
 SCF Done:  E(RM062X) =  -617.497452055     A.U. after   10 cycles
 SCF Done:  E(RM062X) =  -617.497474432     A.U. after    9 cycles
 SCF Done:  E(RM062X) =  -617.497479004     A.U. after    8 cycles
 SCF Done:  E(RM062X) =  -617.497479257     A.U. after    7 cycles
 SCF Done:  E(RM062X) =  -617.497479301     A.U. after    6 cycles
 Optimization completed.
    -- Stationary point found.
 Normal termination of Gaussian 16 at Sun Nov  4 22:02:22 2018.

 ----------------------------------------------------------------------
 #N Geom=AllCheck Guess=TCheck SCRF=Check GenChk RM062X/6-311++G(2d,2p)
  Freq
 ----------------------------------------------------------------------

 Structure from the checkpoint file:  "2SO_1_e4_D_PSI.inp_extract_19.chk"
 -----------------------------
 2SO_1_e4_D_PSI.inp_extract_19
 -----------------------------
 Charge =  0 Multiplicity = 1

                         Standard orientation:
 ---------------------------------------------------------------------
 Center     Atomic      Atomic             Coordinates (Angstroms)
 Number     Number       Type             X           Y           Z
 ---------------------------------------------------------------------
      1          6           0        1.178064   -0.442947   -0.283228
      2          6           0       -3.790296    0.622857    0.493920
      3          6           0       -1.199874   -0.368733   -0.545867
      4          6           0       -2.387542    1.150396    0.812863
      5          6           0       -3.684821   -0.570850   -0.469312
      6          6           0        1.489201    1.048612   -0.249790
      7          6           0        2.174089   -1.204276    0.582191
      8          6           0        3.850516    0.409533    0.282116
      9          8           0        3.505432   -0.965892    0.171946
     10          6           0        2.961723    1.267359   -0.602025
     11          8           0       -0.103092   -0.781478    0.228563
     12          6           0       -2.366785   -1.300451   -0.229974
     13          8           0       -1.530133    0.983783   -0.312929
     14          1           0        1.260666   -0.808754   -1.314096
     15          1           0       -4.400498    1.410457    0.053809
     16          1           0       -4.271273    0.319499    1.424850
     17          1           0       -0.932734   -0.411661   -1.605240
     18          1           0       -2.396629    2.213561    1.038988
     19          1           0       -1.958374    0.629802    1.672311
     20          1           0       -3.711148   -0.217070   -1.501037
     21          1           0       -4.528441   -1.246462   -0.342088
     22          1           0        0.838772    1.590797   -0.933144
     23          1           0        1.284566    1.417826    0.759378
     24          1           0        1.998545   -2.275408    0.504991
     25          1           0        2.038617   -0.899555    1.627764
     26          1           0        3.756292    0.721514    1.329560
     27          1           0        4.896218    0.485635   -0.007994
     28          1           0        3.231103    2.317060   -0.483972
     29          1           0        3.139165    0.998065   -1.645669
     30          1           0       -2.291712   -1.608124    0.815210
     31          1           0       -2.276441   -2.197491   -0.839629
 ---------------------------------------------------------------------

 SCF Done:  E(RM062X) =  -617.497479301     A.U. after    1 cycles

 The electronic state is 1-A.
 Alpha  occ. eigenvalues --  -19.63459 -19.63156 -19.62830 -10.63634 -10.58793
 Alpha  occ. eigenvalues --  -10.58098 -10.58019 -10.57839 -10.53217 -10.53181
 Alpha  occ. eigenvalues --  -10.53167 -10.52921 -10.52887  -1.20009  -1.16706
 Alpha  occ. eigenvalues --   -1.13812  -0.90811  -0.89629  -0.87384  -0.84135
 Alpha  occ. eigenvalues --   -0.75086  -0.74533  -0.72761  -0.70359  -0.65889
 Alpha  occ. eigenvalues --   -0.62618  -0.60256  -0.59075  -0.57879  -0.56826
 Alpha  occ. eigenvalues --   -0.55237  -0.52977  -0.51881  -0.50015  -0.49389
 Alpha  occ. eigenvalues --   -0.47890  -0.47237  -0.46032  -0.45396  -0.44150
 Alpha  occ. eigenvalues --   -0.43927  -0.42605  -0.41175  -0.40547  -0.39398
 Alpha  occ. eigenvalues --   -0.38275  -0.37819  -0.36317  -0.34633  -0.34104
 Alpha  occ. eigenvalues --   -0.32123
 Alpha virt. eigenvalues --   -0.00061   0.00748   0.00792   0.01057   0.02153
 Alpha virt. eigenvalues --    0.02397   0.02583   0.03479   0.03556   0.04229
 Alpha virt. eigenvalues --    0.04555   0.04840   0.05463   0.05857   0.06910

 Mulliken charges:
               1
     1  C   -0.055373
     2  C   -0.525021
     3  C   -0.129938
     4  C   -0.010364
     5  C   -0.195743
     6  C   -0.194046
     7  C   -0.263583
     8  C   -0.215187
     9  O   -0.344496
    10  C   -0.493159
    11  O   -0.311816
    12  C   -0.334494
    13  O   -0.269357
    14  H    0.240254
    15  H    0.161409
    16  H    0.149171
    17  H    0.237352
    18  H    0.198343
    19  H    0.141024
    20  H    0.154764
    21  H    0.193692
    22  H    0.188905
    23  H    0.224466
    24  H    0.198284
    25  H    0.189739
    26  H    0.139757
    27  H    0.210614
    28  H    0.170555
    29  H    0.170969
    30  H    0.201378
    31  H    0.171901
 Sum of Mulliken charges =  -0.00000

 Dipole moment (field-independent basis, Debye):
    X=             -1.9466    Y=              1.1002    Z=              0.0293  Tot=              2.2362
 Quadrupole moment (field-independent basis, Debye-Ang):
   XX=            -78.0833   YY=            -81.1749   ZZ=            -78.2977
   XY=              8.5491   XZ=             -1.2245   YZ=              2.6724

  Exact polarizability: 176.907   1.256 157.977  -1.648   2.108 151.054
 Approx polarizability: 146.229  -0.086 142.928  -2.295   0.891 142.619

                      1                      2                      3
                      A                      A                      A
 Frequencies --     26.9448                51.4330                87.2628
 Red. masses --      3.3058                 3.8347                 3.8567
 Frc consts  --      0.0014                 0.0060                 0.0173
 IR Inten    --      2.1381                 0.2814                 3.6703

                      4                      5                      6
                      A                      A                      A
 Frequencies --    120.6304               185.7799               243.1625
 Red. masses --      3.0176                 1.9882                 3.0874
 Frc consts  --      0.0259                 0.0404                 0.1076
 IR Inten    --      1.5175                 0.4274                 6.4154

                      7                      8                      9
                      A                      A                      A
 Frequencies --    247.5511               252.1791               267.0283
 Red. masses --      1.9845                 2.6652                 4.2805
 Frc consts  --      0.0717                 0.0999                 0.1798
 IR Inten    --      3.9916                 0.4830                 1.4241

                     10                     11                     12
                      A                      A                      A
 Frequencies --    343.1030               386.7061               439.5877
 Red. masses --      2.6300                 2.3136                 4.0524
 Frc consts  --      0.1824                 0.2038                 0.4614
 IR Inten    --      7.1588                18.6845                 2.8791

                     13                     14                     15
                      A                      A                      A
 Frequencies --    452.4555               470.5453               513.6836
 Red. masses --      2.7648                 2.8242                 2.5362
 Frc consts  --      0.3335                 0.3684                 0.3943
 IR Inten    --      5.4395                 0.1781                 6.7552

                     16                     17                     18
                      A                      A                      A
 Frequencies --    548.3295               608.9640               631.5757
 Red. masses --      3.4158                 3.6799                 1.9861
 Frc consts  --      0.6051                 0.8040                 0.4668
 IR Inten    --      2.7741                13.8493                 9.0709

                     19                     20                     21
                      A                      A                      A
 Frequencies --    656.7388               784.7194               827.0126
 Red. masses --      3.5045                 1.2893                 2.2151
 Frc consts  --      0.8906                 0.4678                 0.8926
 IR Inten    --     10.7761                 5.5932                 0.4725

                     22                     23                     24
                      A                      A                      A
 Frequencies --    843.7504               877.2327               895.7671
 Red. masses --      2.5551                 1.4000                 2.5929
 Frc consts  --      1.0718                 0.6348                 1.2258
 IR Inten    --      9.6428                11.1558                19.2200

                     25                     26                     27
                      A                      A                      A
 Frequencies --    898.2100               918.7792               942.9489
 Red. masses --      2.4187                 2.1793                 2.1908
 Frc consts  --      1.1497                 1.0839                 1.1477
 IR Inten    --      5.2567                35.3221                45.9772

                     28                     29                     30
                      A                      A                      A
 Frequencies --    967.6776               986.9286               998.1799
 Red. masses --      1.8564                 2.1984                 1.5481
 Frc consts  --      1.0242                 1.2616                 0.9088
 IR Inten    --      6.5421                22.5391                 7.6402

                     31                     32                     33
                      A                      A                      A
 Frequencies --   1008.8098              1057.7028              1072.4341
 Red. masses --      1.9705                 1.7072                 2.8551
 Frc consts  --      1.1815                 1.1253                 1.9347
 IR Inten    --      4.9144                 1.2062               290.7206

                     34                     35                     36
                      A                      A                      A
 Frequencies --   1074.7048              1084.2699              1117.8102
 Red. masses --      2.0598                 2.2764                 4.3595
 Frc consts  --      1.4017                 1.5768                 3.2094
 IR Inten    --     29.4038                15.7376               283.4814

                     37                     38                     39
                      A                      A                      A
 Frequencies --   1150.0323              1154.2419              1162.5463
 Red. masses --      2.5250                 2.9222                 3.5200
 Frc consts  --      1.9675                 2.2938                 2.8030
 IR Inten    --     31.0425                33.6969               321.2743

                     40                     41                     42
                      A                      A                      A
 Frequencies --   1177.4665              1186.7695              1210.3697
 Red. masses --      2.2284                 2.4027                 1.5118
 Frc consts  --      1.8203                 1.9938                 1.3049
 IR Inten    --     13.7646                32.6221                42.5479

                     43                     44                     45
                      A                      A                      A
 Frequencies --   1221.6332              1243.5099              1247.9703
 Red. masses --      1.5042                 1.6629                 1.4775
 Frc consts  --      1.3226                 1.5151                 1.3558
 IR Inten    --      7.3431                50.0488                12.7477

                     46                     47                     48
                      A                      A                      A
 Frequencies --   1290.6868              1301.8413              1307.2313
 Red. masses --      1.2000                 1.1741                 1.1764
 Frc consts  --      1.1778                 1.1724                 1.1844
 IR Inten    --      4.6890                16.6223                 7.7934

                     49                     50                     51
                      A                      A                      A
 Frequencies --   1330.7812              1338.4622              1347.2355
 Red. masses --      1.2796                 1.2202                 1.2918
 Frc consts  --      1.3352                 1.2880                 1.3815
 IR Inten    --      9.5672                 5.3551                 6.4864

                     52                     53                     54
                      A                      A                      A
 Frequencies --   1352.0998              1366.6729              1373.6356
 Red. masses --      1.2612                 1.4295                 1.3947
 Frc consts  --      1.3584                 1.5732                 1.5505
 IR Inten    --     16.2316                 2.5517                 0.4578

                     55                     56                     57
                      A                      A                      A
 Frequencies --   1382.6053              1398.2038              1402.4499
 Red. masses --      1.4470                 1.3787                 1.3537
 Frc consts  --      1.6297                 1.5881                 1.5687
 IR Inten    --      8.1412                 9.8319                10.6420

                     58                     59                     60
                      A                      A                      A
 Frequencies --   1407.3252              1420.5797              1427.0748
 Red. masses --      1.4663                 1.4505                 1.3364
 Frc consts  --      1.7111                 1.7247                 1.6035
 IR Inten    --     33.6004                22.3635                10.1740

                     61                     62                     63
                      A                      A                      A
 Frequencies --   1442.3467              1479.5506              1488.7322
 Red. masses --      1.4374                 1.0936                 1.0774
 Frc consts  --      1.7619                 1.4105                 1.4069
 IR Inten    --      7.0151                 8.3344                 2.8174

                     64                     65                     66
                      A                      A                      A
 Frequencies --   1492.5940              1493.4809              1501.8276
 Red. masses --      1.0996                 1.1143                 1.0862
 Frc consts  --      1.4434                 1.4644                 1.4434
 IR Inten    --     17.5462                 3.8888                 0.7262

                     67                     68                     69
                      A                      A                      A
 Frequencies --   1503.8398              1514.3681              1523.1700
 Red. masses --      1.0980                 1.1016                 1.0876
 Frc consts  --      1.4631                 1.4884                 1.4867
 IR Inten    --      9.9665                 8.3160                 4.2819

                     70                     71                     72
                      A                      A                      A
 Frequencies --   3014.9210              3019.8100              3025.8389
 Red. masses --      1.0735                 1.0708                 1.0779
 Frc consts  --      5.7490                 5.7535                 5.8146
 IR Inten    --     14.8198                67.2687               100.0968

                     73                     74                     75
                      A                      A                      A
 Frequencies --   3059.8769              3060.7615              3066.2742
 Red. masses --      1.0703                 1.0693                 1.0833
 Frc consts  --      5.9041                 5.9021                 6.0007
 IR Inten    --     68.3304                15.8830                24.6660

                     76                     77                     78
                      A                      A                      A
 Frequencies --   3069.6697              3074.6919              3078.0653
 Red. masses --      1.0620                 1.0680                 1.0615
 Frc consts  --      5.8960                 5.9485                 5.9256
 IR Inten    --     60.9672                12.0265                51.7852

                     79                     80                     81
                      A                      A                      A
 Frequencies --   3081.9159              3117.3106              3118.3780
 Red. masses --      1.0643                 1.0991                 1.1006
 Frc consts  --      5.9560                 6.2928                 6.3056
 IR Inten    --     44.9475                31.0851                46.4001

                     82                     83                     84
                      A                      A                      A
 Frequencies --   3131.6217              3131.7330              3134.5118
 Red. masses --      1.0947                 1.1012                 1.0992
 Frc consts  --      6.3256                 6.3632                 6.3633
 IR Inten    --     69.6201                23.8970                46.6863

                     85                     86                     87
                      A                      A                      A
 Frequencies --   3134.8085              3137.6238              3143.5845
 Red. masses --      1.0950                 1.0971                 1.1001
 Frc consts  --      6.3399                 6.3637                 6.4049
 IR Inten    --     40.0146                32.1789                47.1786

 - Thermochemistry -
 -------------------
 Temperature   298.150 Kelvin.  Pressure   1.00000 Atm.
 Atom     1 has atomic number  6 and mass  12.00000

 Molecular mass:   186.12559 amu.
 Principal axes and moments of inertia in atomic units:
                           1         2         3
     Eigenvalues --   823.523334731.507175163.48188
           X            0.99993   0.01163  -0.00174
           Y           -0.01160   0.99979   0.01677
           Z            0.00193  -0.01674   0.99986
 This molecule is an asymmetric top.
 Rotational symmetry number  1.
 Warning -- assumption of classical behavior for rotation
           may cause significant error
 Rotational temperatures (Kelvin)      0.10517     0.01831     0.01677
 Rotational constants (GHZ):           2.19149     0.38143     0.34952
 Zero-point vibrational energy     736500.9 (Joules/Mol)
                                  176.02793 (Kcal/Mol)
 Warning -- explicit consideration of  17 degrees of freedom as
           vibrations may cause significant error
 Vibrational temperatures:     38.77    74.00   125.55   173.56   267.30
          (Kelvin)            349.86   356.17   362.83   384.19   493.65
                              556.38   632.47   650.98   677.01   739.08
                              788.92   876.16   908.70   944.90  1129.04
                             1189.89  1213.97  1262.14  1288.81  1292.32
                             1321.92  1356.69  1392.27  1419.97  1436.16
                             1451.45  1521.80  1542.99  1546.26  1560.02
                             1608.28  1654.64  1660.70  1672.64  1694.11
                             1707.50  1741.45  1757.66  1789.13  1795.55
                             1857.01  1873.06  1880.81  1914.70  1925.75
                             1938.37  1945.37  1966.34  1976.36  1989.26
                             2011.70  2017.81  2024.83  2043.90  2053.24
                             2075.22  2128.74  2141.95  2147.51  2148.79
                             2160.80  2163.69  2178.84  2191.50  4337.80
                             4344.83  4353.51  4402.48  4403.75  4411.68
                             4416.57  4423.80  4428.65  4434.19  4485.11
                             4486.65  4505.71  4505.87  4509.86  4510.29
                             4514.34  4522.92

 Zero-point correction=                           0.280518 (Hartree/Particle)
 Thermal correction to Energy=                    0.292451
 Thermal correction to Enthalpy=                  0.293395
 Thermal correction to Gibbs Free Energy=         0.241405
 Sum of electronic and zero-point Energies=           -617.216961
 Sum of electronic and thermal Energies=              -617.205029
 Sum of electronic and thermal Enthalpies=            -617.204084
 Sum of electronic and thermal Free Energies=         -617.256074

                     E (Thermal)             CV                S
                      KCal/Mol        Cal/Mol-Kelvin    Cal/Mol-Kelvin
 Total                  183.516             46.859            109.422
 Electronic               0.000              0.000              0.000
 Translational            0.889              2.981             41.570
 Rotational               0.889              2.981             31.376
 Vibrational            181.738             40.897             36.476
 Vibration     1          0.593              1.984              6.043
 Vibration     2          0.596              1.977              4.762
 Vibration     3          0.601              1.958              3.721
 Vibration     4          0.609              1.932              3.090
 Vibration     5          0.632              1.859              2.270
 Vibration     6          0.659              1.774              1.780
 Vibration     7          0.661              1.767              1.748
 Vibration     8          0.664              1.759              1.715
 Vibration     9          0.672              1.734              1.615
 Vibration    10          0.722              1.589              1.198
 Vibration    11          0.755              1.499              1.013
 Vibration    12          0.800              1.384              0.828
 Vibration    13          0.811              1.355              0.788
 Vibration    14          0.828              1.315              0.736
 Vibration    15          0.869              1.220              0.625
 Vibration    16          0.904              1.143              0.548
 Vibration    17          0.968              1.013              0.434

 Optimization completed.
    -- Stationary point found.
 Normal termination of Gaussian 16 at Sun Nov  4 22:54:36 2018.
