 Gaussian 16, Revision A.03,
 Gaussian 16:  ES64L-G16RevA.03 25-Dec-2016

 ----------------------------------------------------------------------
 #M062X/6-311++G(2d,2p) opt=ModRedundant freq=noraman SCRF=(Solvent=Wat
 er)
 ----------------------------------------------------------------------

 ----------------------------
 2SO_1_e4_D_PSI.inp_extract_3
 ----------------------------
 Symbolic Z-matrix:
 Charge =  0 Multiplicity = 1

 SCF Done:  E(RM062X) =  -617.494892642     A.U. after   12 cycles
 SCF Done:  E(RM062X) =  -617.496584064     A.U. after   10 cycles
 SCF Done:  E(RM062X) =  -617.496859039     A.U. after   10 cycles
 SCF Done:  E(RM062X) =  -617.496964199     A.U. after   10 cycles
 SCF Done:  E(RM062X) =  -617.496990954     A.U. after    9 cycles
 SCF Done:  E(RM062X) =  -617.496995928     A.U. after    8 cycles
 SCF Done:  E(RM062X) =  -617.496996591     A.U. after    8 cycles
 SCF Done:  E(RM062X) =  -617.496996704     A.U. after    7 cycles
 Optimization completed.
    -- Stationary point found.
 Normal termination of Gaussian 16 at Mon Nov  5 01:31:00 2018.

 ----------------------------------------------------------------------
 #N Geom=AllCheck Guess=TCheck SCRF=Check GenChk RM062X/6-311++G(2d,2p)
  Freq
 ----------------------------------------------------------------------

 Structure from the checkpoint file:  "2SO_1_e4_D_PSI.inp_extract_3.chk"
 ----------------------------
 2SO_1_e4_D_PSI.inp_extract_3
 ----------------------------
 Charge =  0 Multiplicity = 1

                         Standard orientation:
 ---------------------------------------------------------------------
 Center     Atomic      Atomic             Coordinates (Angstroms)
 Number     Number       Type             X           Y           Z
 ---------------------------------------------------------------------
      1          6           0       -1.069269    0.235423    0.217617
      2          6           0        3.746760   -0.252095    0.765283
      3          6           0        1.163348   -0.000371   -0.644922
      4          6           0        2.339830   -0.422684    1.348640
      5          6           0        3.648738    0.087304   -0.730904
      6          6           0       -2.113191    1.329988    0.365215
      7          6           0       -1.585560   -0.843963   -0.733841
      8          6           0       -3.833472   -0.376799   -0.207572
      9          8           0       -2.816954   -1.368124   -0.273037
     10          6           0       -3.457091    0.726252    0.766898
     11          8           0        0.120323    0.860478   -0.251028
     12          6           0        2.366565    0.872664   -0.992674
     13          8           0        1.459125   -0.945790    0.356264
     14          1           0       -0.877371   -0.230424    1.189031
     15          1           0        4.329160   -1.161399    0.907619
     16          1           0        4.255337    0.548536    1.303991
     17          1           0        0.857452   -0.596218   -1.506730
     18          1           0        2.325167   -1.126503    2.176596
     19          1           0        1.945788    0.530262    1.709985
     20          1           0        3.626776   -0.832248   -1.317527
     21          1           0        4.519683    0.652800   -1.056212
     22          1           0       -1.774007    2.065207    1.094971
     23          1           0       -2.209441    1.839109   -0.597797
     24          1           0       -0.900011   -1.687001   -0.787480
     25          1           0       -1.703811   -0.416029   -1.738448
     26          1           0       -3.993229    0.042542   -1.208500
     27          1           0       -4.740940   -0.891710    0.100265
     28          1           0       -4.234755    1.489983    0.775861
     29          1           0       -3.394939    0.304989    1.772387
     30          1           0        2.341050    1.767903   -0.368418
     31          1           0        2.288189    1.193384   -2.029631
 ---------------------------------------------------------------------

 SCF Done:  E(RM062X) =  -617.496996704     A.U. after    1 cycles

 The electronic state is 1-A.
 Alpha  occ. eigenvalues --  -19.63343 -19.63229 -19.63199 -10.63627 -10.58629
 Alpha  occ. eigenvalues --  -10.58149 -10.58050 -10.57980 -10.53272 -10.53248
 Alpha  occ. eigenvalues --  -10.53233 -10.53204 -10.52958  -1.20216  -1.16701
 Alpha  occ. eigenvalues --   -1.13666  -0.90978  -0.89817  -0.86969  -0.84516
 Alpha  occ. eigenvalues --   -0.75450  -0.74710  -0.72894  -0.69964  -0.65553
 Alpha  occ. eigenvalues --   -0.62416  -0.60684  -0.59392  -0.58080  -0.56675
 Alpha  occ. eigenvalues --   -0.55553  -0.52963  -0.51840  -0.50443  -0.49393
 Alpha  occ. eigenvalues --   -0.47751  -0.46679  -0.45789  -0.45590  -0.44612
 Alpha  occ. eigenvalues --   -0.44297  -0.43480  -0.40662  -0.39918  -0.39675
 Alpha  occ. eigenvalues --   -0.38586  -0.37433  -0.36013  -0.35639  -0.34098
 Alpha  occ. eigenvalues --   -0.32069
 Alpha virt. eigenvalues --   -0.00114   0.00741   0.00855   0.01091   0.02118
 Alpha virt. eigenvalues --    0.02365   0.02566   0.03470   0.03792   0.04270
 Alpha virt. eigenvalues --    0.04478   0.04559   0.05515   0.05872   0.07060

 Mulliken charges:
               1
     1  C    0.011628
     2  C   -0.504573
     3  C   -0.221843
     4  C   -0.026438
     5  C   -0.218787
     6  C   -0.319692
     7  C   -0.331296
     8  C   -0.129302
     9  O   -0.333772
    10  C   -0.369599
    11  O   -0.275229
    12  C   -0.367984
    13  O   -0.272842
    14  H    0.229420
    15  H    0.160812
    16  H    0.149699
    17  H    0.224381
    18  H    0.204194
    19  H    0.146485
    20  H    0.154223
    21  H    0.195523
    22  H    0.172339
    23  H    0.203302
    24  H    0.246765
    25  H    0.212138
    26  H    0.132318
    27  H    0.209329
    28  H    0.180834
    29  H    0.161875
    30  H    0.194595
    31  H    0.181495
 Sum of Mulliken charges =   0.00000

 Dipole moment (field-independent basis, Debye):
    X=              1.0479    Y=              1.9958    Z=             -0.0431  Tot=              2.2546
 Quadrupole moment (field-independent basis, Debye-Ang):
   XX=            -69.2386   YY=            -86.9670   ZZ=            -76.1905
   XY=             -4.7374   XZ=              0.3463   YZ=              0.6774

  Exact polarizability: 178.839  -1.817 150.640  -1.533  -1.200 155.859
 Approx polarizability: 147.134  -0.941 141.744  -0.476  -1.378 142.697

                      1                      2                      3
                      A                      A                      A
 Frequencies --     39.0137                47.4180                89.5198
 Red. masses --      3.3219                 4.2103                 3.3684
 Frc consts  --      0.0030                 0.0056                 0.0159
 IR Inten    --      1.0594                 0.9954                 1.5792

                      4                      5                      6
                      A                      A                      A
 Frequencies --    126.3658               167.4486               226.5074
 Red. masses --      3.2595                 2.3404                 2.1654
 Frc consts  --      0.0307                 0.0387                 0.0655
 IR Inten    --      0.7806                 3.4234                 8.1874

                      7                      8                      9
                      A                      A                      A
 Frequencies --    246.4057               277.2326               281.5708
 Red. masses --      2.1467                 3.7110                 2.8707
 Frc consts  --      0.0768                 0.1680                 0.1341
 IR Inten    --      4.7507                 1.3333                 3.5098

                     10                     11                     12
                      A                      A                      A
 Frequencies --    356.5932               370.1998               446.1021
 Red. masses --      2.9164                 2.4157                 3.3370
 Frc consts  --      0.2185                 0.1951                 0.3913
 IR Inten    --     14.3461                18.7325                 3.7634

                     13                     14                     15
                      A                      A                      A
 Frequencies --    456.9582               458.3487               506.9804
 Red. masses --      3.3344                 2.5612                 2.8052
 Frc consts  --      0.4102                 0.3170                 0.4248
 IR Inten    --      1.8876                 2.9772                 5.6943

                     16                     17                     18
                      A                      A                      A
 Frequencies --    543.7684               615.2286               634.9367
 Red. masses --      3.1733                 2.9943                 1.9893
 Frc consts  --      0.5528                 0.6678                 0.4725
 IR Inten    --      1.6565                 5.1099                 7.3082

                     19                     20                     21
                      A                      A                      A
 Frequencies --    665.8067               783.4120               831.8307
 Red. masses --      4.1394                 1.3034                 2.1967
 Frc consts  --      1.0811                 0.4713                 0.8955
 IR Inten    --      7.0574                 5.4525                 0.3273

                     22                     23                     24
                      A                      A                      A
 Frequencies --    842.7057               878.7221               892.9398
 Red. masses --      2.6732                 1.3906                 2.6271
 Frc consts  --      1.1185                 0.6326                 1.2342
 IR Inten    --      7.6174                 9.4277                 1.5290

                     25                     26                     27
                      A                      A                      A
 Frequencies --    900.6155               924.7104               944.1482
 Red. masses --      2.4215                 2.1472                 2.3504
 Frc consts  --      1.1572                 1.0818                 1.2344
 IR Inten    --     21.9168                22.1033                13.1351

                     28                     29                     30
                      A                      A                      A
 Frequencies --    969.6351               986.9371               994.4462
 Red. masses --      1.7008                 1.9917                 1.7289
 Frc consts  --      0.9422                 1.1430                 1.0074
 IR Inten    --      5.4745                44.4891                24.8148

                     31                     32                     33
                      A                      A                      A
 Frequencies --   1007.1748              1050.9673              1063.8083
 Red. masses --      1.9454                 2.1046                 2.5698
 Frc consts  --      1.1627                 1.3696                 1.7135
 IR Inten    --      5.7905                37.2085               163.9598

                     34                     35                     36
                      A                      A                      A
 Frequencies --   1074.1560              1085.0237              1116.7678
 Red. masses --      1.8026                 2.2255                 4.8645
 Frc consts  --      1.2254                 1.5436                 3.5745
 IR Inten    --     98.2177                 6.5037               330.3797

                     37                     38                     39
                      A                      A                      A
 Frequencies --   1146.3849              1157.4120              1166.2857
 Red. masses --      2.7885                 2.7549                 3.6846
 Frc consts  --      2.1591                 2.1743                 2.9529
 IR Inten    --    141.5917                54.5269               120.5503

                     40                     41                     42
                      A                      A                      A
 Frequencies --   1173.8590              1187.7041              1211.6517
 Red. masses --      2.3432                 2.1516                 1.3823
 Frc consts  --      1.9024                 1.7882                 1.1956
 IR Inten    --     54.3356                 8.9071                 5.9566

                     43                     44                     45
                      A                      A                      A
 Frequencies --   1224.2939              1245.2280              1255.4926
 Red. masses --      1.6061                 1.6818                 1.5241
 Frc consts  --      1.4184                 1.5365                 1.4155
 IR Inten    --     19.8539                43.0027                29.7185

                     46                     47                     48
                      A                      A                      A
 Frequencies --   1290.6789              1304.2282              1308.3609
 Red. masses --      1.2017                 1.1691                 1.1675
 Frc consts  --      1.1795                 1.1716                 1.1775
 IR Inten    --      3.2266                12.9839                11.1732

                     49                     50                     51
                      A                      A                      A
 Frequencies --   1329.7185              1335.2474              1346.3790
 Red. masses --      1.2760                 1.1835                 1.3052
 Frc consts  --      1.3292                 1.2432                 1.3940
 IR Inten    --      9.3429                 1.2354                 2.8924

                     52                     53                     54
                      A                      A                      A
 Frequencies --   1360.9378              1367.1693              1371.6451
 Red. masses --      1.3055                 1.4245                 1.3520
 Frc consts  --      1.4247                 1.5688                 1.4986
 IR Inten    --      6.5445                 1.8667                 0.7455

                     55                     56                     57
                      A                      A                      A
 Frequencies --   1383.2680              1399.2846              1402.4657
 Red. masses --      1.4669                 1.3495                 1.3854
 Frc consts  --      1.6537                 1.5568                 1.6055
 IR Inten    --      5.4596                29.9509                 2.3847

                     58                     59                     60
                      A                      A                      A
 Frequencies --   1410.5723              1419.6274              1430.9409
 Red. masses --      1.3595                 1.4166                 1.4797
 Frc consts  --      1.5938                 1.6821                 1.7851
 IR Inten    --      5.6581                12.2694                 6.7817

                     61                     62                     63
                      A                      A                      A
 Frequencies --   1435.8354              1481.3371              1487.3509
 Red. masses --      1.3963                 1.0936                 1.0791
 Frc consts  --      1.6960                 1.4139                 1.4065
 IR Inten    --     24.2501                 7.9180                 2.3421

                     64                     65                     66
                      A                      A                      A
 Frequencies --   1495.0891              1497.2439              1502.9162
 Red. masses --      1.0951                 1.1136                 1.0854
 Frc consts  --      1.4422                 1.4708                 1.4445
 IR Inten    --      6.5049                10.9571                 0.8552

                     67                     68                     69
                      A                      A                      A
 Frequencies --   1503.7951              1515.2252              1522.3222
 Red. masses --      1.0943                 1.0999                 1.0873
 Frc consts  --      1.4580                 1.4878                 1.4846
 IR Inten    --     10.6558                 6.9546                 4.0870

                     70                     71                     72
                      A                      A                      A
 Frequencies --   3008.9055              3020.7039              3051.4257
 Red. masses --      1.0697                 1.0703                 1.0788
 Frc consts  --      5.7059                 5.7539                 5.9181
 IR Inten    --     50.5156                78.1226                26.2140

                     73                     74                     75
                      A                      A                      A
 Frequencies --   3061.4684              3062.1722              3071.7422
 Red. masses --      1.0685                 1.0691                 1.0620
 Frc consts  --      5.9006                 5.9063                 5.9037
 IR Inten    --     59.1375                41.9085                41.6468

                     76                     77                     78
                      A                      A                      A
 Frequencies --   3076.1590              3079.4130              3081.5674
 Red. masses --      1.0688                 1.0635                 1.0798
 Frc consts  --      5.9589                 5.9417                 6.0414
 IR Inten    --     28.7230                29.8077                30.7779

                     79                     80                     81
                      A                      A                      A
 Frequencies --   3084.3538              3114.6746              3118.5144
 Red. masses --      1.0654                 1.0990                 1.0993
 Frc consts  --      5.9713                 6.2816                 6.2987
 IR Inten    --     51.6450                42.4087                31.4266

                     82                     83                     84
                      A                      A                      A
 Frequencies --   3121.7647              3132.4390              3133.2906
 Red. masses --      1.1026                 1.0948                 1.1013
 Frc consts  --      6.3309                 6.3293                 6.3702
 IR Inten    --     54.5248                49.7787                41.6229

                     85                     86                     87
                      A                      A                      A
 Frequencies --   3135.7078              3137.6921              3146.6869
 Red. masses --      1.0989                 1.0962                 1.0997
 Frc consts  --      6.3661                 6.3587                 6.4153
 IR Inten    --     48.9637                31.4937                45.8881

 - Thermochemistry -
 -------------------
 Temperature   298.150 Kelvin.  Pressure   1.00000 Atm.
 Atom     1 has atomic number  6 and mass  12.00000

 Molecular mass:   186.12559 amu.
 Principal axes and moments of inertia in atomic units:
                           1         2         3
     Eigenvalues --   835.550024759.311554851.22113
           X            0.99998  -0.00584  -0.00144
           Y            0.00588   0.99943   0.03311
           Z            0.00125  -0.03311   0.99945
 This molecule is an asymmetric top.
 Rotational symmetry number  1.
 Warning -- assumption of classical behavior for rotation
           may cause significant error
 Rotational temperatures (Kelvin)      0.10366     0.01820     0.01785
 Rotational constants (GHZ):           2.15994     0.37920     0.37202
 Zero-point vibrational energy     736977.6 (Joules/Mol)
                                  176.14188 (Kcal/Mol)
 Warning -- explicit consideration of  17 degrees of freedom as
           vibrations may cause significant error
 Vibrational temperatures:     56.13    68.22   128.80   181.81   240.92
          (Kelvin)            325.89   354.52   398.88   405.12   513.06
                              532.63   641.84   657.46   659.46   729.43
                              782.36   885.18   913.53   957.95  1127.16
                             1196.82  1212.47  1264.29  1284.74  1295.78
                             1330.45  1358.42  1395.09  1419.98  1430.79
                             1449.10  1512.11  1530.58  1545.47  1561.11
                             1606.78  1649.39  1665.26  1678.03  1688.92
                             1708.84  1743.30  1761.49  1791.61  1806.37
                             1857.00  1876.49  1882.44  1913.17  1921.12
                             1937.14  1958.09  1967.05  1973.49  1990.21
                             2013.26  2017.84  2029.50  2042.53  2058.80
                             2065.85  2131.31  2139.97  2151.10  2154.20
                             2162.36  2163.63  2180.07  2190.28  4329.14
                             4346.12  4390.32  4404.77  4405.78  4419.55
                             4425.91  4430.59  4433.69  4437.70  4481.32
                             4486.85  4491.52  4506.88  4508.11  4511.58
                             4514.44  4527.38

 Zero-point correction=                           0.280700 (Hartree/Particle)
 Thermal correction to Energy=                    0.292603
 Thermal correction to Enthalpy=                  0.293547
 Thermal correction to Gibbs Free Energy=         0.241880
 Sum of electronic and zero-point Energies=           -617.216297
 Sum of electronic and thermal Energies=              -617.204394
 Sum of electronic and thermal Enthalpies=            -617.203450
 Sum of electronic and thermal Free Energies=         -617.255117

                     E (Thermal)             CV                S
                      KCal/Mol        Cal/Mol-Kelvin    Cal/Mol-Kelvin
 Total                  183.611             46.820            108.742
 Electronic               0.000              0.000              0.000
 Translational            0.889              2.981             41.570
 Rotational               0.889              2.981             31.334
 Vibrational            181.833             40.859             35.838
 Vibration     1          0.594              1.981              5.309
 Vibration     2          0.595              1.979              4.922
 Vibration     3          0.602              1.957              3.671
 Vibration     4          0.611              1.927              3.001
 Vibration     5          0.624              1.883              2.464
 Vibration     6          0.650              1.801              1.906
 Vibration     7          0.661              1.769              1.756
 Vibration     8          0.678              1.716              1.551
 Vibration     9          0.681              1.708              1.524
 Vibration    10          0.732              1.562              1.137
 Vibration    11          0.742              1.533              1.079
 Vibration    12          0.805              1.369              0.808
 Vibration    13          0.815              1.346              0.775
 Vibration    14          0.816              1.342              0.771
 Vibration    15          0.862              1.235              0.641
 Vibration    16          0.899              1.153              0.557
 Vibration    17          0.975              1.000              0.424

 Optimization completed.
    -- Stationary point found.
 Normal termination of Gaussian 16 at Mon Nov  5 02:23:33 2018.
