 Gaussian 16, Revision A.03,
 Gaussian 16:  ES64L-G16RevA.03 25-Dec-2016

 ----------------------------------------------------------------------
 #M062X/6-311++G(2d,2p) opt=ModRedundant freq=noraman SCRF=(Solvent=Wat
 er)
 ----------------------------------------------------------------------

 ----------------------------
 2SO_1_e4_D_PSI.inp_extract_6
 ----------------------------
 Symbolic Z-matrix:
 Charge =  0 Multiplicity = 1

 SCF Done:  E(RM062X) =  -617.489598645     A.U. after   12 cycles
 SCF Done:  E(RM062X) =  -617.491143588     A.U. after   12 cycles
 SCF Done:  E(RM062X) =  -617.491433219     A.U. after   10 cycles
 SCF Done:  E(RM062X) =  -617.491596374     A.U. after   10 cycles
 SCF Done:  E(RM062X) =  -617.491626918     A.U. after    9 cycles
 SCF Done:  E(RM062X) =  -617.491634580     A.U. after    9 cycles
 SCF Done:  E(RM062X) =  -617.491635760     A.U. after    8 cycles
 SCF Done:  E(RM062X) =  -617.491636011     A.U. after    7 cycles
 Optimization completed.
    -- Stationary point found.
 Normal termination of Gaussian 16 at Mon Nov  5 01:32:27 2018.

 ----------------------------------------------------------------------
 #N Geom=AllCheck Guess=TCheck SCRF=Check GenChk RM062X/6-311++G(2d,2p)
  Freq
 ----------------------------------------------------------------------

 Structure from the checkpoint file:  "2SO_1_e4_D_PSI.inp_extract_6.chk"
 ----------------------------
 2SO_1_e4_D_PSI.inp_extract_6
 ----------------------------
 Charge =  0 Multiplicity = 1

                         Standard orientation:
 ---------------------------------------------------------------------
 Center     Atomic      Atomic             Coordinates (Angstroms)
 Number     Number       Type             X           Y           Z
 ---------------------------------------------------------------------
      1          6           0       -1.180215    0.196238    0.538936
      2          6           0        3.874422   -0.452190    0.286416
      3          6           0        1.081164    0.254977   -0.396968
      4          6           0        2.591430   -0.956082    0.954756
      5          6           0        3.517655    0.543865   -0.829026
      6          6           0       -2.198505    1.311842    0.349642
      7          6           0       -1.463645   -0.902640   -0.489862
      8          6           0       -3.766652   -0.428419   -0.514630
      9          8           0       -2.767831   -1.412790   -0.277501
     10          6           0       -3.615357    0.745943    0.438262
     11          8           0        0.130312    0.765941    0.497278
     12          6           0        2.222215    1.265859   -0.470558
     13          8           0        1.534157   -1.025074    0.001347
     14          1           0       -1.307885   -0.252903    1.528056
     15          1           0        4.443125   -1.287092   -0.120880
     16          1           0        4.497434    0.029169    1.041494
     17          1           0        0.646190    0.098471   -1.383890
     18          1           0        2.710868   -1.958629    1.357219
     19          1           0        2.292859   -0.299200    1.775077
     20          1           0        3.376421    0.010191   -1.770116
     21          1           0        4.325387    1.256335   -0.984653
     22          1           0       -2.038161    2.088131    1.097986
     23          1           0       -2.030898    1.760100   -0.634012
     24          1           0       -0.771204   -1.733955   -0.388339
     25          1           0       -1.394695   -0.502156   -1.508132
     26          1           0       -3.691549   -0.084423   -1.553344
     27          1           0       -4.724205   -0.927974   -0.384725
     28          1           0       -4.353605    1.511018    0.197718
     29          1           0       -3.813924    0.403693    1.456055
     30          1           0        2.319824    1.754061    0.501165
     31          1           0        1.965851    2.034193   -1.197484
 ---------------------------------------------------------------------

 SCF Done:  E(RM062X) =  -617.491636011     A.U. after    1 cycles

 The electronic state is 1-A.
 Alpha  occ. eigenvalues --  -19.63255 -19.63221 -19.62921 -10.63689 -10.58882
 Alpha  occ. eigenvalues --  -10.58235 -10.58079 -10.57849 -10.53251 -10.53242
 Alpha  occ. eigenvalues --  -10.53191 -10.53149 -10.52892  -1.19838  -1.16727
 Alpha  occ. eigenvalues --   -1.13513  -0.90890  -0.89795  -0.86936  -0.84618
 Alpha  occ. eigenvalues --   -0.75428  -0.74703  -0.72902  -0.70083  -0.65841
 Alpha  occ. eigenvalues --   -0.62268  -0.60911  -0.59232  -0.57780  -0.56475
 Alpha  occ. eigenvalues --   -0.55284  -0.53003  -0.51673  -0.50642  -0.49250
 Alpha  occ. eigenvalues --   -0.47983  -0.46917  -0.45700  -0.45521  -0.44449
 Alpha  occ. eigenvalues --   -0.44002  -0.43125  -0.41050  -0.40556  -0.39642
 Alpha  occ. eigenvalues --   -0.38494  -0.37789  -0.35975  -0.34504  -0.33742
 Alpha  occ. eigenvalues --   -0.32348
 Alpha virt. eigenvalues --   -0.00120   0.00712   0.00811   0.01158   0.02077
 Alpha virt. eigenvalues --    0.02347   0.02523   0.03640   0.03707   0.04263
 Alpha virt. eigenvalues --    0.04484   0.04572   0.05658   0.05702   0.07139

 Mulliken charges:
               1
     1  C   -0.127188
     2  C   -0.481357
     3  C   -0.109190
     4  C   -0.062192
     5  C   -0.204357
     6  C   -0.185465
     7  C   -0.318153
     8  C   -0.153483
     9  O   -0.352367
    10  C   -0.369433
    11  O   -0.324329
    12  C   -0.413224
    13  O   -0.290540
    14  H    0.249039
    15  H    0.164036
    16  H    0.147274
    17  H    0.268745
    18  H    0.200410
    19  H    0.151651
    20  H    0.152113
    21  H    0.197546
    22  H    0.176260
    23  H    0.191211
    24  H    0.228385
    25  H    0.214758
    26  H    0.131740
    27  H    0.205995
    28  H    0.173175
    29  H    0.165715
    30  H    0.204320
    31  H    0.168905
 Sum of Mulliken charges =  -0.00000

 Dipole moment (field-independent basis, Debye):
    X=              0.7636    Y=              2.2977    Z=             -0.7534  Tot=              2.5358
 Quadrupole moment (field-independent basis, Debye-Ang):
   XX=            -69.0806   YY=            -85.7571   ZZ=            -77.9211
   XY=             -5.1636   XZ=              1.7515   YZ=             -2.4614

  Exact polarizability: 180.909  -2.475 154.145  -0.865  -2.207 150.869
 Approx polarizability: 148.650  -1.042 141.765  -0.150  -1.165 141.405

 ******    1 imaginary frequencies (negative Signs) ******

                      1                      2                      3
                      A                      A                      A
 Frequencies --    -61.9452                60.6261                78.2281
 Red. masses --      3.5654                 4.2037                 3.4558
 Frc consts  --      0.0081                 0.0091                 0.0125
 IR Inten    --      0.8774                 1.5874                 2.4654

                      4                      5                      6
                      A                      A                      A
 Frequencies --    134.0132               179.3557               222.1540
 Red. masses --      3.0303                 2.3217                 2.5417
 Frc consts  --      0.0321                 0.0440                 0.0739
 IR Inten    --      0.2304                 2.1726                 5.1293

                      7                      8                      9
                      A                      A                      A
 Frequencies --    249.1524               264.8075               281.8851
 Red. masses --      2.1444                 2.5075                 4.0148
 Frc consts  --      0.0784                 0.1036                 0.1880
 IR Inten    --      3.1279                 0.6392                 4.9665

                     10                     11                     12
                      A                      A                      A
 Frequencies --    346.0894               382.4885               440.0454
 Red. masses --      2.6253                 2.6491                 3.0429
 Frc consts  --      0.1853                 0.2283                 0.3472
 IR Inten    --      7.7230                20.4269                 2.3137

                     13                     14                     15
                      A                      A                      A
 Frequencies --    454.5689               470.6142               506.4725
 Red. masses --      3.4667                 2.7589                 2.9633
 Frc consts  --      0.4221                 0.3600                 0.4479
 IR Inten    --      4.4088                 3.0279                 2.3331

                     16                     17                     18
                      A                      A                      A
 Frequencies --    555.0650               609.2919               632.0027
 Red. masses --      2.4193                 4.5269                 1.9935
 Frc consts  --      0.4392                 0.9902                 0.4691
 IR Inten    --      3.6619                 6.0537                 9.7407

                     19                     20                     21
                      A                      A                      A
 Frequencies --    656.9432               784.1622               826.4729
 Red. masses --      3.5922                 1.2916                 2.1865
 Frc consts  --      0.9134                 0.4679                 0.8800
 IR Inten    --      6.8365                 6.3173                 0.9954

                     22                     23                     24
                      A                      A                      A
 Frequencies --    842.0548               878.0502               891.4427
 Red. masses --      2.6779                 1.3960                 2.7119
 Frc consts  --      1.1187                 0.6341                 1.2697
 IR Inten    --     12.9019                 9.4035                 2.0183

                     25                     26                     27
                      A                      A                      A
 Frequencies --    898.2769               920.1284               940.9954
 Red. masses --      2.4972                 2.1037                 2.2925
 Frc consts  --      1.1872                 1.0494                 1.1960
 IR Inten    --     34.7158                27.0153                25.6132

                     28                     29                     30
                      A                      A                      A
 Frequencies --    969.9202               982.9745               996.0768
 Red. masses --      1.7500                 1.9071                 1.7858
 Frc consts  --      0.9700                 1.0857                 1.0439
 IR Inten    --     12.0033                27.2271                29.3831

                     31                     32                     33
                      A                      A                      A
 Frequencies --   1010.0638              1039.2724              1054.3840
 Red. masses --      2.0925                 2.7153                 1.7531
 Frc consts  --      1.2578                 1.7279                 1.1483
 IR Inten    --      8.1655                91.9063                74.5073

                     34                     35                     36
                      A                      A                      A
 Frequencies --   1073.6026              1082.4752              1115.2649
 Red. masses --      1.8289                 2.2298                 4.2443
 Frc consts  --      1.2420                 1.5394                 3.1104
 IR Inten    --    163.9120                 5.8145               321.1947

                     37                     38                     39
                      A                      A                      A
 Frequencies --   1139.9856              1158.2380              1170.7944
 Red. masses --      2.8022                 3.1748                 3.9779
 Frc consts  --      2.1456                 2.5094                 3.2127
 IR Inten    --    126.2029               130.6498               110.7704

                     40                     41                     42
                      A                      A                      A
 Frequencies --   1174.2605              1187.8667              1214.2185
 Red. masses --      2.1870                 2.4072                 1.4106
 Frc consts  --      1.7767                 2.0012                 1.2253
 IR Inten    --     16.8130                45.7340                14.2256

                     43                     44                     45
                      A                      A                      A
 Frequencies --   1217.1333              1243.9459              1249.0956
 Red. masses --      1.5179                 1.6444                 1.5053
 Frc consts  --      1.3248                 1.4992                 1.3838
 IR Inten    --     16.7837                33.0186                17.0978

                     46                     47                     48
                      A                      A                      A
 Frequencies --   1289.7512              1305.7880              1308.5549
 Red. masses --      1.2070                 1.1558                 1.1615
 Frc consts  --      1.1829                 1.1611                 1.1718
 IR Inten    --      2.5063                27.6995                10.0335

                     49                     50                     51
                      A                      A                      A
 Frequencies --   1337.6792              1344.2014              1349.8022
 Red. masses --      1.3092                 1.2711                 1.2988
 Frc consts  --      1.3802                 1.3532                 1.3942
 IR Inten    --      6.5950                 2.2473                 4.2093

                     52                     53                     54
                      A                      A                      A
 Frequencies --   1361.8036              1367.1501              1371.7138
 Red. masses --      1.2264                 1.4133                 1.3964
 Frc consts  --      1.3400                 1.5564                 1.5481
 IR Inten    --      6.5728                 1.9222                 0.5046

                     55                     56                     57
                      A                      A                      A
 Frequencies --   1385.2186              1395.9136              1400.8802
 Red. masses --      1.4343                 1.4347                 1.2927
 Frc consts  --      1.6215                 1.6471                 1.4947
 IR Inten    --      0.9347                40.7345                 0.5433

                     58                     59                     60
                      A                      A                      A
 Frequencies --   1412.1307              1421.3450              1426.7410
 Red. masses --      1.3601                 1.3526                 1.4318
 Frc consts  --      1.5980                 1.6100                 1.7172
 IR Inten    --      7.4166                 9.3068                19.2397

                     61                     62                     63
                      A                      A                      A
 Frequencies --   1430.9794              1480.3008              1488.4568
 Red. masses --      1.4064                 1.0934                 1.0784
 Frc consts  --      1.6967                 1.4116                 1.4077
 IR Inten    --     17.5359                 7.8910                 2.4070

                     64                     65                     66
                      A                      A                      A
 Frequencies --   1494.1351              1496.2391              1504.5291
 Red. masses --      1.0953                 1.1104                 1.0969
 Frc consts  --      1.4406                 1.4647                 1.4629
 IR Inten    --      7.1098                11.0877                 8.6378

                     67                     68                     69
                      A                      A                      A
 Frequencies --   1505.6979              1520.8910              1523.9370
 Red. masses --      1.0835                 1.0972                 1.0870
 Frc consts  --      1.4473                 1.4953                 1.4873
 IR Inten    --      2.7758                 7.9639                 4.1590

                     70                     71                     72
                      A                      A                      A
 Frequencies --   3021.6458              3024.5708              3048.7921
 Red. masses --      1.0705                 1.0702                 1.0760
 Frc consts  --      5.7585                 5.7684                 5.8929
 IR Inten    --     48.5690                53.8848                13.4137

                     73                     74                     75
                      A                      A                      A
 Frequencies --   3059.2104              3061.8620              3070.8817
 Red. masses --      1.0725                 1.0692                 1.0621
 Frc consts  --      5.9136                 5.9058                 5.9014
 IR Inten    --     89.8522                38.0095                41.6371

                     76                     77                     78
                      A                      A                      A
 Frequencies --   3075.1782              3079.0407              3082.4288
 Red. masses --      1.0663                 1.0632                 1.0633
 Frc consts  --      5.9413                 5.9389                 5.9522
 IR Inten    --     16.0110                41.1114                42.0067

                     79                     80                     81
                      A                      A                      A
 Frequencies --   3104.8554              3113.6162              3117.7417
 Red. masses --      1.0849                 1.0984                 1.0992
 Frc consts  --      6.1618                 6.2739                 6.2950
 IR Inten    --     41.4607                41.4322                30.8481

                     82                     83                     84
                      A                      A                      A
 Frequencies --   3120.5162              3132.1372              3134.7394
 Red. masses --      1.1026                 1.1015                 1.0949
 Frc consts  --      6.3261                 6.3666                 6.3393
 IR Inten    --     53.6884                45.3697                47.1760

                     85                     86                     87
                      A                      A                      A
 Frequencies --   3135.8510              3145.6709              3156.4553
 Red. masses --      1.1001                 1.0996                 1.0950
 Frc consts  --      6.3735                 6.4111                 6.4277
 IR Inten    --     58.5457                47.4396                14.9346

 - Thermochemistry -
 -------------------
 Temperature   298.150 Kelvin.  Pressure   1.00000 Atm.
 Atom     1 has atomic number  6 and mass  12.00000

 Molecular mass:   186.12559 amu.
 Principal axes and moments of inertia in atomic units:
                           1         2         3
     Eigenvalues --   827.570584693.815515034.03965
           X            0.99998  -0.00623   0.00027
           Y            0.00624   0.99968  -0.02472
           Z           -0.00012   0.02472   0.99969
 This molecule is an asymmetric top.
 Rotational symmetry number  1.
 Warning -- assumption of classical behavior for rotation
           may cause significant error
 Rotational temperatures (Kelvin)      0.10466     0.01845     0.01721
 Rotational constants (GHZ):           2.18077     0.38449     0.35851
    1 imaginary frequencies ignored.
 Zero-point vibrational energy     736863.7 (Joules/Mol)
                                  176.11466 (Kcal/Mol)
 Warning -- explicit consideration of  16 degrees of freedom as
           vibrations may cause significant error
 Vibrational temperatures:     87.23   112.55   192.82   258.05   319.63
          (Kelvin)            358.47   381.00   405.57   497.95   550.32
                              633.13   654.02   677.11   728.70   798.61
                              876.64   909.31   945.19  1128.23  1189.11
                             1211.53  1263.32  1282.59  1292.42  1323.86
                             1353.88  1395.50  1414.28  1433.13  1453.26
                             1495.28  1517.02  1544.67  1557.44  1604.62
                             1640.19  1666.45  1684.51  1689.50  1709.08
                             1746.99  1751.18  1789.76  1797.17  1855.66
                             1878.74  1882.72  1924.62  1934.01  1942.06
                             1959.33  1967.02  1973.59  1993.02  2008.41
                             2015.55  2031.74  2045.00  2052.76  2058.86
                             2129.82  2141.56  2149.73  2152.75  2164.68
                             2166.36  2188.22  2192.61  4347.47  4351.68
                             4386.53  4401.52  4405.34  4418.31  4424.50
                             4430.05  4434.93  4467.19  4479.80  4485.73
                             4489.73  4506.45  4510.19  4511.79  4525.92
                             4541.44

 Zero-point correction=                           0.280657 (Hartree/Particle)
 Thermal correction to Energy=                    0.291686
 Thermal correction to Enthalpy=                  0.292630
 Thermal correction to Gibbs Free Energy=         0.243650
 Sum of electronic and zero-point Energies=           -617.210979
 Sum of electronic and thermal Energies=              -617.199950
 Sum of electronic and thermal Enthalpies=            -617.199006
 Sum of electronic and thermal Free Energies=         -617.247986

                     E (Thermal)             CV                S
                      KCal/Mol        Cal/Mol-Kelvin    Cal/Mol-Kelvin
 Total                  183.035             44.888            103.087
 Electronic               0.000              0.000              0.000
 Translational            0.889              2.981             41.570
 Rotational               0.889              2.981             31.348
 Vibrational            181.258             38.927             30.169
 Vibration     1          0.597              1.973              4.437
 Vibration     2          0.600              1.964              3.935
 Vibration     3          0.613              1.919              2.888
 Vibration     4          0.629              1.868              2.335
 Vibration     5          0.648              1.807              1.941
 Vibration     6          0.662              1.764              1.737
 Vibration     7          0.671              1.738              1.630
 Vibration     8          0.681              1.707              1.522
 Vibration     9          0.724              1.583              1.184
 Vibration    10          0.752              1.508              1.029
 Vibration    11          0.800              1.383              0.826
 Vibration    12          0.813              1.351              0.782
 Vibration    13          0.828              1.315              0.736
 Vibration    14          0.862              1.236              0.642
 Vibration    15          0.911              1.129              0.534
 Vibration    16          0.968              1.012              0.434

                           ! Non-Optimized Parameters !
 Normal termination of Gaussian 16 at Mon Nov  5 02:29:32 2018.
