 Gaussian 16, Revision A.03,
 Gaussian 16:  ES64L-G16RevA.03 25-Dec-2016

 ----------------------------------------------------------------------
 #M062X/6-311++G(2d,2p) opt=ModRedundant freq=noraman SCRF=(Solvent=Wat
 er)
 ----------------------------------------------------------------------

 -----------------------------
 2SO_1_e4_D_PSI.inp_extract_17
 -----------------------------
 Symbolic Z-matrix:
 Charge =  0 Multiplicity = 1

 SCF Done:  E(RM062X) =  -617.493268860     A.U. after   12 cycles
 SCF Done:  E(RM062X) =  -617.494900256     A.U. after   11 cycles
 SCF Done:  E(RM062X) =  -617.495187007     A.U. after   10 cycles
 SCF Done:  E(RM062X) =  -617.495275443     A.U. after    9 cycles
 SCF Done:  E(RM062X) =  -617.495293612     A.U. after    9 cycles
 SCF Done:  E(RM062X) =  -617.495298124     A.U. after    8 cycles
 SCF Done:  E(RM062X) =  -617.495299196     A.U. after    8 cycles
 SCF Done:  E(RM062X) =  -617.495299329     A.U. after    7 cycles
 Optimization completed.
    -- Stationary point found.
 Normal termination of Gaussian 16 at Mon Nov  5 00:56:12 2018.

 ----------------------------------------------------------------------
 #N Geom=AllCheck Guess=TCheck SCRF=Check GenChk RM062X/6-311++G(2d,2p)
  Freq
 ----------------------------------------------------------------------

 Structure from the checkpoint file:  "2SO_1_e4_D_PSI.inp_extract_17.chk"
 -----------------------------
 2SO_1_e4_D_PSI.inp_extract_17
 -----------------------------
 Charge =  0 Multiplicity = 1

                         Standard orientation:
 ---------------------------------------------------------------------
 Center     Atomic      Atomic             Coordinates (Angstroms)
 Number     Number       Type             X           Y           Z
 ---------------------------------------------------------------------
      1          6           0        1.200592   -0.581312   -0.330782
      2          6           0       -3.700272    0.618060    0.652536
      3          6           0       -1.183459   -0.297231   -0.610909
      4          6           0       -2.265111    0.955292    1.069098
      5          6           0       -3.675272   -0.336858   -0.552423
      6          6           0        1.442259    0.902122   -0.585266
      7          6           0        2.094697   -1.064505    0.802511
      8          6           0        3.746461    0.529786    0.317275
      9          8           0        3.459994   -0.850583    0.505808
     10          6           0        2.938307    1.107967   -0.832960
     11          8           0       -0.124166   -0.954579    0.035956
     12          6           0       -2.414106   -1.193040   -0.494558
     13          8           0       -1.414450    0.986117   -0.073692
     14          1           0        1.472233   -1.132021   -1.240532
     15          1           0       -4.245963    1.527062    0.402872
     16          1           0       -4.210614    0.152818    1.496989
     17          1           0       -0.928647   -0.122944   -1.658995
     18          1           0       -2.197384    1.937191    1.530390
     19          1           0       -1.881690    0.223123    1.783682
     20          1           0       -3.669861    0.238182   -1.479645
     21          1           0       -4.565894   -0.962003   -0.569821
     22          1           0        0.857092    1.260394   -1.430581
     23          1           0        1.129438    1.470815    0.292906
     24          1           0        1.961522   -2.133274    0.958998
     25          1           0        1.815871   -0.535490    1.722740
     26          1           0        3.523164    1.073234    1.243519
     27          1           0        4.815461    0.595897    0.127067
     28          1           0        3.163719    2.169242   -0.938341
     29          1           0        3.237626    0.613768   -1.759852
     30          1           0       -2.366514   -1.728865    0.455820
     31          1           0       -2.385149   -1.936459   -1.288931
 ---------------------------------------------------------------------

 SCF Done:  E(RM062X) =  -617.495299329     A.U. after    1 cycles

 The electronic state is 1-A.
 Alpha  occ. eigenvalues --  -19.63341 -19.63168 -19.62822 -10.63599 -10.58806
 Alpha  occ. eigenvalues --  -10.58109 -10.58051 -10.57834 -10.53253 -10.53197
 Alpha  occ. eigenvalues --  -10.53153 -10.53108 -10.52876  -1.19901  -1.16715
 Alpha  occ. eigenvalues --   -1.13675  -0.90866  -0.89648  -0.87435  -0.84189
 Alpha  occ. eigenvalues --   -0.75225  -0.74651  -0.72656  -0.70174  -0.65906
 Alpha  occ. eigenvalues --   -0.62422  -0.60496  -0.59111  -0.57399  -0.56855
 Alpha  occ. eigenvalues --   -0.55366  -0.53043  -0.51743  -0.50391  -0.49459
 Alpha  occ. eigenvalues --   -0.47830  -0.46726  -0.46103  -0.45368  -0.44387
 Alpha  occ. eigenvalues --   -0.43913  -0.43386  -0.40974  -0.40546  -0.39302
 Alpha  occ. eigenvalues --   -0.38261  -0.37401  -0.35980  -0.34536  -0.34009
 Alpha  occ. eigenvalues --   -0.32435
 Alpha virt. eigenvalues --   -0.00079   0.00777   0.00805   0.01017   0.02162
 Alpha virt. eigenvalues --    0.02396   0.02596   0.03388   0.03590   0.04250
 Alpha virt. eigenvalues --    0.04595   0.04968   0.05633   0.05683   0.06977

 Mulliken charges:
               1
     1  C   -0.081126
     2  C   -0.514473
     3  C   -0.151651
     4  C   -0.013565
     5  C   -0.199541
     6  C   -0.264786
     7  C   -0.198460
     8  C   -0.207625
     9  O   -0.346607
    10  C   -0.466957
    11  O   -0.301853
    12  C   -0.378223
    13  O   -0.257878
    14  H    0.261352
    15  H    0.157856
    16  H    0.150703
    17  H    0.237543
    18  H    0.201514
    19  H    0.141189
    20  H    0.157096
    21  H    0.197551
    22  H    0.193380
    23  H    0.235941
    24  H    0.195653
    25  H    0.191083
    26  H    0.140013
    27  H    0.208432
    28  H    0.169046
    29  H    0.169789
    30  H    0.201838
    31  H    0.172767
 Sum of Mulliken charges =  -0.00000

 Dipole moment (field-independent basis, Debye):
    X=             -2.0089    Y=              1.3545    Z=             -0.5224  Tot=              2.4786
 Quadrupole moment (field-independent basis, Debye-Ang):
   XX=            -78.5003   YY=            -82.2254   ZZ=            -77.1415
   XY=              8.2616   XZ=             -3.0262   YZ=              2.3895

  Exact polarizability: 176.940   1.150 155.694  -2.347   1.867 153.597
 Approx polarizability: 146.610  -0.269 143.311  -2.782   0.594 142.304

                      1                      2                      3
                      A                      A                      A
 Frequencies --     26.3655                54.2660                87.9747
 Red. masses --      3.6899                 3.7526                 3.4591
 Frc consts  --      0.0015                 0.0065                 0.0158
 IR Inten    --      0.6269                 1.9869                 4.1621

                      4                      5                      6
                      A                      A                      A
 Frequencies --    130.0416               171.0295               229.0512
 Red. masses --      3.1455                 2.2872                 2.2293
 Frc consts  --      0.0313                 0.0394                 0.0689
 IR Inten    --      0.4545                 1.0419                 5.1943

                      7                      8                      9
                      A                      A                      A
 Frequencies --    256.2011               269.4678               271.2125
 Red. masses --      2.1859                 4.1218                 2.8467
 Frc consts  --      0.0845                 0.1763                 0.1234
 IR Inten    --      4.9055                 0.3481                 2.4984

                     10                     11                     12
                      A                      A                      A
 Frequencies --    353.4387               382.3447               440.7529
 Red. masses --      2.5865                 2.4933                 3.9906
 Frc consts  --      0.1904                 0.2148                 0.4568
 IR Inten    --      6.1560                20.1698                 1.5708

                     13                     14                     15
                      A                      A                      A
 Frequencies --    458.2826               463.7875               504.9826
 Red. masses --      2.7698                 2.6542                 2.8414
 Frc consts  --      0.3427                 0.3364                 0.4269
 IR Inten    --      8.0157                 0.3623                 2.6384

                     16                     17                     18
                      A                      A                      A
 Frequencies --    549.6418               614.3691               631.8532
 Red. masses --      2.7643                 4.4859                 1.9965
 Frc consts  --      0.4920                 0.9976                 0.4696
 IR Inten    --      5.6361                11.2381                 9.4291

                     19                     20                     21
                      A                      A                      A
 Frequencies --    650.9527               781.5775               826.6240
 Red. masses --      3.2358                 1.2942                 2.1725
 Frc consts  --      0.8078                 0.4658                 0.8746
 IR Inten    --      8.4558                 4.7268                 0.7387

                     22                     23                     24
                      A                      A                      A
 Frequencies --    844.2227               878.7593               893.6452
 Red. masses --      2.6173                 1.3888                 2.6103
 Frc consts  --      1.0991                 0.6319                 1.2282
 IR Inten    --     11.1893                13.1552                20.7260

                     25                     26                     27
                      A                      A                      A
 Frequencies --    898.8033               921.4185               945.6354
 Red. masses --      2.4595                 2.1397                 2.1918
 Frc consts  --      1.1707                 1.0703                 1.1548
 IR Inten    --      2.6368                32.8943                35.4644

                     28                     29                     30
                      A                      A                      A
 Frequencies --    969.8455               984.0026               997.3259
 Red. masses --      1.8271                 2.2949                 1.6544
 Frc consts  --      1.0125                 1.3092                 0.9695
 IR Inten    --      8.4256                15.7278                 4.9853

                     31                     32                     33
                      A                      A                      A
 Frequencies --   1008.3152              1059.2634              1064.4781
 Red. masses --      1.8784                 1.7453                 3.5406
 Frc consts  --      1.1252                 1.1538                 2.3637
 IR Inten    --      4.1730                 2.9591               248.4733

                     34                     35                     36
                      A                      A                      A
 Frequencies --   1075.3921              1085.2070              1120.0639
 Red. masses --      1.8121                 2.2292                 4.3466
 Frc consts  --      1.2347                 1.5468                 3.2128
 IR Inten    --     89.3206                12.9086               273.2011

                     37                     38                     39
                      A                      A                      A
 Frequencies --   1150.1508              1155.6362              1162.6938
 Red. masses --      2.6381                 2.8283                 3.5720
 Frc consts  --      2.0561                 2.2255                 2.8451
 IR Inten    --     34.2201                50.4706               302.0996

                     40                     41                     42
                      A                      A                      A
 Frequencies --   1177.3469              1186.4328              1210.6385
 Red. masses --      2.1940                 2.3529                 1.4917
 Frc consts  --      1.7918                 1.9514                 1.2881
 IR Inten    --      4.3417                19.1317                80.1773

                     43                     44                     45
                      A                      A                      A
 Frequencies --   1220.6348              1245.0707              1250.4645
 Red. masses --      1.5540                 1.6340                 1.4828
 Frc consts  --      1.3642                 1.4924                 1.3661
 IR Inten    --      1.2744                52.1540                 7.1435

                     46                     47                     48
                      A                      A                      A
 Frequencies --   1289.8796              1300.5020              1307.0478
 Red. masses --      1.2056                 1.1676                 1.1707
 Frc consts  --      1.1818                 1.1635                 1.1784
 IR Inten    --      3.5591                12.1036                 8.0397

                     49                     50                     51
                      A                      A                      A
 Frequencies --   1329.7427              1341.1236              1351.7578
 Red. masses --      1.2711                 1.2328                 1.2392
 Frc consts  --      1.3243                 1.3064                 1.3341
 IR Inten    --      7.4758                 0.6766                14.7399

                     52                     53                     54
                      A                      A                      A
 Frequencies --   1353.5737              1366.0330              1371.6329
 Red. masses --      1.3017                 1.4104                 1.4003
 Frc consts  --      1.4051                 1.5506                 1.5522
 IR Inten    --      4.5978                 2.2000                 0.2029

                     55                     56                     57
                      A                      A                      A
 Frequencies --   1382.4983              1398.5722              1407.9968
 Red. masses --      1.4476                 1.2624                 1.4023
 Frc consts  --      1.6301                 1.4549                 1.6379
 IR Inten    --     10.1803                14.7173                10.6375

                     58                     59                     60
                      A                      A                      A
 Frequencies --   1412.6824              1419.5785              1427.6609
 Red. masses --      1.4409                 1.4234                 1.3466
 Frc consts  --      1.6942                 1.6900                 1.6171
 IR Inten    --     17.8444                12.0512                22.5152

                     61                     62                     63
                      A                      A                      A
 Frequencies --   1436.8742              1481.2082              1486.4175
 Red. masses --      1.5036                 1.0951                 1.0786
 Frc consts  --      1.8291                 1.4156                 1.4041
 IR Inten    --     11.1185                 7.6837                 2.6471

                     64                     65                     66
                      A                      A                      A
 Frequencies --   1491.2577              1493.6934              1501.7017
 Red. masses --      1.1199                 1.0969                 1.0854
 Frc consts  --      1.4673                 1.4420                 1.4421
 IR Inten    --     13.9500                 6.5746                 0.6038

                     67                     68                     69
                      A                      A                      A
 Frequencies --   1502.5050              1514.0535              1524.5280
 Red. masses --      1.0989                 1.1015                 1.0863
 Frc consts  --      1.4616                 1.4878                 1.4875
 IR Inten    --     10.4577                 7.8353                 3.8362

                     70                     71                     72
                      A                      A                      A
 Frequencies --   3009.9403              3019.9163              3022.9014
 Red. masses --      1.0789                 1.0708                 1.0721
 Frc consts  --      5.7588                 5.7537                 5.7721
 IR Inten    --     22.8212                55.3515               136.2522

                     73                     74                     75
                      A                      A                      A
 Frequencies --   3060.7639              3068.6696              3070.5494
 Red. masses --      1.0697                 1.0645                 1.0808
 Frc consts  --      5.9045                 5.9060                 6.0038
 IR Inten    --     51.6260                29.4388                35.0501

                     76                     77                     78
                      A                      A                      A
 Frequencies --   3075.2585              3077.5795              3078.5563
 Red. masses --      1.0669                 1.0632                 1.0651
 Frc consts  --      5.9449                 5.9334                 5.9478
 IR Inten    --      8.9679                56.3530                19.6833

                     79                     80                     81
                      A                      A                      A
 Frequencies --   3082.0301              3116.8396              3120.0371
 Red. masses --      1.0638                 1.0993                 1.0996
 Frc consts  --      5.9534                 6.2919                 6.3067
 IR Inten    --     49.7642                32.1536                44.0809

                     82                     83                     84
                      A                      A                      A
 Frequencies --   3131.0717              3131.6601              3131.7681
 Red. masses --      1.0977                 1.0999                 1.1000
 Frc consts  --      6.3404                 6.3554                 6.3563
 IR Inten    --     35.4099                23.5060                66.1825

                     85                     86                     87
                      A                      A                      A
 Frequencies --   3135.1007              3135.4910              3144.5557
 Red. masses --      1.0985                 1.0972                 1.0997
 Frc consts  --      6.3613                 6.3552                 6.4069
 IR Inten    --     30.1042                72.2273                46.1163

 - Thermochemistry -
 -------------------
 Temperature   298.150 Kelvin.  Pressure   1.00000 Atm.
 Atom     1 has atomic number  6 and mass  12.00000

 Molecular mass:   186.12559 amu.
 Principal axes and moments of inertia in atomic units:
                           1         2         3
     Eigenvalues --   849.301794677.318974918.74595
           X            0.99993   0.01109  -0.00370
           Y           -0.01099   0.99966   0.02375
           Z            0.00396  -0.02371   0.99971
 This molecule is an asymmetric top.
 Rotational symmetry number  1.
 Warning -- assumption of classical behavior for rotation
           may cause significant error
 Rotational temperatures (Kelvin)      0.10198     0.01852     0.01761
 Rotational constants (GHZ):           2.12497     0.38585     0.36691
 Zero-point vibrational energy     736689.5 (Joules/Mol)
                                  176.07303 (Kcal/Mol)
 Warning -- explicit consideration of  17 degrees of freedom as
           vibrations may cause significant error
 Vibrational temperatures:     37.93    78.08   126.58   187.10   246.07
          (Kelvin)            329.55   368.62   387.70   390.21   508.52
                              550.11   634.15   659.37   667.29   726.56
                              790.81   883.94   909.10   936.58  1124.52
                             1189.33  1214.65  1264.34  1285.76  1293.18
                             1325.72  1360.56  1395.39  1415.76  1434.93
                             1450.74  1524.04  1531.55  1547.25  1561.37
                             1611.52  1654.81  1662.70  1672.86  1693.94
                             1707.01  1741.84  1756.22  1791.38  1799.14
                             1855.85  1871.13  1880.55  1913.20  1929.58
                             1944.88  1947.49  1965.42  1973.47  1989.11
                             2012.23  2025.79  2032.53  2042.46  2054.09
                             2067.34  2131.13  2138.62  2145.59  2149.09
                             2160.61  2161.77  2178.39  2193.46  4330.63
                             4344.99  4349.28  4403.76  4415.13  4417.84
                             4424.61  4427.95  4429.36  4434.35  4484.44
                             4489.04  4504.91  4505.76  4505.92  4510.71
                             4511.27  4524.31

 Zero-point correction=                           0.280590 (Hartree/Particle)
 Thermal correction to Energy=                    0.292500
 Thermal correction to Enthalpy=                  0.293445
 Thermal correction to Gibbs Free Energy=         0.241554
 Sum of electronic and zero-point Energies=           -617.214709
 Sum of electronic and thermal Energies=              -617.202799
 Sum of electronic and thermal Enthalpies=            -617.201855
 Sum of electronic and thermal Free Energies=         -617.253746

                     E (Thermal)             CV                S
                      KCal/Mol        Cal/Mol-Kelvin    Cal/Mol-Kelvin
 Total                  183.547             46.840            109.214
 Electronic               0.000              0.000              0.000
 Translational            0.889              2.981             41.570
 Rotational               0.889              2.981             31.347
 Vibrational            181.769             40.878             36.297
 Vibration     1          0.593              1.985              6.086
 Vibration     2          0.596              1.976              4.656
 Vibration     3          0.601              1.958              3.705
 Vibration     4          0.612              1.923              2.945
 Vibration     5          0.626              1.878              2.424
 Vibration     6          0.652              1.797              1.886
 Vibration     7          0.666              1.752              1.688
 Vibration     8          0.674              1.729              1.600
 Vibration     9          0.675              1.726              1.588
 Vibration    10          0.730              1.568              1.151
 Vibration    11          0.752              1.508              1.030
 Vibration    12          0.801              1.381              0.824
 Vibration    13          0.816              1.343              0.771
 Vibration    14          0.821              1.330              0.755
 Vibration    15          0.860              1.239              0.646
 Vibration    16          0.905              1.140              0.545
 Vibration    17          0.974              1.001              0.426

 Optimization completed.
    -- Stationary point found.
 Normal termination of Gaussian 16 at Mon Nov  5 01:51:50 2018.
