 Gaussian 16, Revision A.03,
 Gaussian 16:  ES64L-G16RevA.03 25-Dec-2016

 ----------------------------------------------------------------------
 #M062X/6-311++G(2d,2p) opt=ModRedundant freq=noraman SCRF=(Solvent=Wat
 er)
 ----------------------------------------------------------------------

 -----------------------------
 2SO_1_e4_D_PSI.inp_extract_14
 -----------------------------
 Symbolic Z-matrix:
 Charge =  0 Multiplicity = 1

 SCF Done:  E(RM062X) =  -617.491673719     A.U. after   12 cycles
 SCF Done:  E(RM062X) =  -617.493296525     A.U. after   11 cycles
 SCF Done:  E(RM062X) =  -617.493671758     A.U. after   11 cycles
 SCF Done:  E(RM062X) =  -617.493822910     A.U. after    9 cycles
 SCF Done:  E(RM062X) =  -617.493860390     A.U. after    9 cycles
 SCF Done:  E(RM062X) =  -617.493866937     A.U. after    9 cycles
 SCF Done:  E(RM062X) =  -617.493868009     A.U. after    8 cycles
 SCF Done:  E(RM062X) =  -617.493868213     A.U. after    7 cycles
 Optimization completed.
    -- Stationary point found.
 Normal termination of Gaussian 16 at Mon Nov  5 00:21:07 2018.

 ----------------------------------------------------------------------
 #N Geom=AllCheck Guess=TCheck SCRF=Check GenChk RM062X/6-311++G(2d,2p)
  Freq
 ----------------------------------------------------------------------

 Structure from the checkpoint file:  "2SO_1_e4_D_PSI.inp_extract_14.chk"
 -----------------------------
 2SO_1_e4_D_PSI.inp_extract_14
 -----------------------------
 Charge =  0 Multiplicity = 1

                         Standard orientation:
 ---------------------------------------------------------------------
 Center     Atomic      Atomic             Coordinates (Angstroms)
 Number     Number       Type             X           Y           Z
 ---------------------------------------------------------------------
      1          6           0        1.212367   -0.582161    0.668231
      2          6           0       -3.510392    0.986938   -0.377220
      3          6           0       -1.139516   -0.744062    0.015411
      4          6           0       -2.038347    1.410017   -0.328385
      5          6           0       -3.616275   -0.533128   -0.172648
      6          6           0        1.563875   -0.960146   -0.765906
      7          6           0        1.752326    0.813524    0.970499
      8          6           0        3.518136    0.594033   -0.553266
      9          8           0        3.152545    0.887922    0.788560
     10          6           0        3.076041   -0.804752   -0.948182
     11          8           0       -0.175401   -0.554457    1.014195
     12          6           0       -2.470477   -1.007058    0.716454
     13          8           0       -1.211712    0.373580   -0.850069
     14          1           0        1.690246   -1.294170    1.346268
     15          1           0       -3.955656    1.271312   -1.329759
     16          1           0       -4.054215    1.514980    0.407317
     17          1           0       -0.871339   -1.577735   -0.632260
     18          1           0       -1.849283    2.291964   -0.935103
     19          1           0       -1.727969    1.635316    0.694921
     20          1           0       -3.550790   -1.041332   -1.135860
     21          1           0       -4.577397   -0.798476    0.263536
     22          1           0        1.265587   -1.985090   -0.986240
     23          1           0        1.039781   -0.298376   -1.457357
     24          1           0        1.547113    1.076253    2.006594
     25          1           0        1.240283    1.531489    0.316160
     26          1           0        3.062447    1.334899   -1.221728
     27          1           0        4.599543    0.699453   -0.606832
     28          1           0        3.351622   -0.994769   -1.985521
     29          1           0        3.604796   -1.531563   -0.327907
     30          1           0       -2.480626   -0.462191    1.662566
     31          1           0       -2.544042   -2.067568    0.949800
 ---------------------------------------------------------------------

 SCF Done:  E(RM062X) =  -617.493868213     A.U. after    1 cycles

 The electronic state is 1-A.
 Alpha  occ. eigenvalues --  -19.63216 -19.63068 -19.62806 -10.63528 -10.58816
 Alpha  occ. eigenvalues --  -10.58029 -10.57798 -10.57788 -10.53379 -10.53337
 Alpha  occ. eigenvalues --  -10.53188 -10.53147 -10.52862  -1.19798  -1.16604
 Alpha  occ. eigenvalues --   -1.13428  -0.90880  -0.89673  -0.87337  -0.84163
 Alpha  occ. eigenvalues --   -0.75439  -0.74527  -0.72829  -0.70114  -0.65913
 Alpha  occ. eigenvalues --   -0.62028  -0.60581  -0.59047  -0.57477  -0.56472
 Alpha  occ. eigenvalues --   -0.55484  -0.52926  -0.51959  -0.50457  -0.49229
 Alpha  occ. eigenvalues --   -0.48048  -0.46199  -0.45879  -0.45681  -0.44750
 Alpha  occ. eigenvalues --   -0.44047  -0.43249  -0.40729  -0.40529  -0.39032
 Alpha  occ. eigenvalues --   -0.38240  -0.37407  -0.36164  -0.35387  -0.33663
 Alpha  occ. eigenvalues --   -0.31888
 Alpha virt. eigenvalues --   -0.00120   0.00780   0.00918   0.00927   0.02194
 Alpha virt. eigenvalues --    0.02472   0.02607   0.03330   0.03614   0.04256
 Alpha virt. eigenvalues --    0.04632   0.05084   0.05646   0.05892   0.07040

 Mulliken charges:
               1
     1  C    0.090743
     2  C   -0.533642
     3  C   -0.204591
     4  C   -0.022481
     5  C   -0.223443
     6  C   -0.259992
     7  C   -0.262065
     8  C   -0.175104
     9  O   -0.345473
    10  C   -0.477560
    11  O   -0.323841
    12  C   -0.393946
    13  O   -0.286545
    14  H    0.253468
    15  H    0.162569
    16  H    0.150928
    17  H    0.265692
    18  H    0.202546
    19  H    0.138594
    20  H    0.153917
    21  H    0.199548
    22  H    0.159112
    23  H    0.268227
    24  H    0.194629
    25  H    0.193264
    26  H    0.138392
    27  H    0.213878
    28  H    0.166603
    29  H    0.179693
    30  H    0.198205
    31  H    0.178673
 Sum of Mulliken charges =   0.00000

 Dipole moment (field-independent basis, Debye):
    X=             -1.7877    Y=             -1.0322    Z=             -1.6415  Tot=              2.6374
 Quadrupole moment (field-independent basis, Debye-Ang):
   XX=            -76.9747   YY=            -77.1700   ZZ=            -83.2743
   XY=             -4.4820   XZ=             -7.4331   YZ=             -0.0518

  Exact polarizability: 176.833  -2.149 156.711  -1.532  -0.206 151.464
 Approx polarizability: 147.408  -2.252 141.585  -0.185  -0.235 143.054

 ******    1 imaginary frequencies (negative Signs) ******

                      1                      2                      3
                      A                      A                      A
 Frequencies --    -30.8781                63.4654                81.1752
 Red. masses --      4.0591                 3.8360                 3.2239
 Frc consts  --      0.0023                 0.0091                 0.0125
 IR Inten    --      0.0346                 1.6582                 4.3912

                      4                      5                      6
                      A                      A                      A
 Frequencies --    142.8369               170.3438               216.9487
 Red. masses --      2.7367                 3.0058                 1.9301
 Frc consts  --      0.0329                 0.0514                 0.0535
 IR Inten    --      0.7035                 1.8725                 2.7746

                      7                      8                      9
                      A                      A                      A
 Frequencies --    253.5235               270.1529               307.8819
 Red. masses --      2.0305                 3.6587                 3.0587
 Frc consts  --      0.0769                 0.1573                 0.1708
 IR Inten    --      4.9924                 0.9606                 8.5644

                     10                     11                     12
                      A                      A                      A
 Frequencies --    363.5024               369.8148               439.2941
 Red. masses --      3.1401                 2.4657                 3.0569
 Frc consts  --      0.2445                 0.1987                 0.3476
 IR Inten    --     20.8449                 7.5649                 0.6701

                     13                     14                     15
                      A                      A                      A
 Frequencies --    453.5007               461.2262               491.8279
 Red. masses --      3.2778                 2.8507                 3.2335
 Frc consts  --      0.3972                 0.3573                 0.4608
 IR Inten    --      9.8519                 0.5378                 0.9208

                     16                     17                     18
                      A                      A                      A
 Frequencies --    552.6178               622.1512               631.8619
 Red. masses --      2.2280                 5.4817                 1.9976
 Frc consts  --      0.4009                 1.2501                 0.4699
 IR Inten    --      6.4145                12.7140                 7.6521

                     19                     20                     21
                      A                      A                      A
 Frequencies --    654.0636               783.4185               824.0999
 Red. masses --      3.4139                 1.2925                 2.1599
 Frc consts  --      0.8605                 0.4674                 0.8643
 IR Inten    --      5.2477                 5.2278                 2.9565

                     22                     23                     24
                      A                      A                      A
 Frequencies --    841.7882               882.7386               890.2360
 Red. masses --      2.5948                 1.3873                 2.6825
 Frc consts  --      1.0833                 0.6369                 1.2526
 IR Inten    --     13.2040                11.8474                12.3619

                     25                     26                     27
                      A                      A                      A
 Frequencies --    898.3730               921.0206               949.7256
 Red. masses --      2.4123                 2.1091                 2.2764
 Frc consts  --      1.1471                 1.0541                 1.2098
 IR Inten    --      5.1734                32.6408                29.5323

                     28                     29                     30
                      A                      A                      A
 Frequencies --    970.7551               978.8008               996.4462
 Red. masses --      1.9229                 2.3232                 1.6301
 Frc consts  --      1.0676                 1.3114                 0.9536
 IR Inten    --     19.6105                 4.2441                10.6263

                     31                     32                     33
                      A                      A                      A
 Frequencies --   1008.5312              1045.8524              1060.4256
 Red. masses --      1.8519                 3.1221                 1.7222
 Frc consts  --      1.1098                 2.0120                 1.1410
 IR Inten    --      6.2129               154.5146                17.9995

                     34                     35                     36
                      A                      A                      A
 Frequencies --   1073.0423              1082.5774              1113.6145
 Red. masses --      1.8065                 2.2732                 4.1403
 Frc consts  --      1.2255                 1.5696                 3.0252
 IR Inten    --    137.9823                 8.4416               240.2209

                     37                     38                     39
                      A                      A                      A
 Frequencies --   1148.8833              1154.6251              1166.9728
 Red. masses --      2.6107                 3.0665                 3.7684
 Frc consts  --      2.0303                 2.4087                 3.0237
 IR Inten    --     18.0926               102.7594               275.5557

                     40                     41                     42
                      A                      A                      A
 Frequencies --   1170.3660              1190.3238              1210.6994
 Red. masses --      2.3602                 2.1729                 1.3950
 Frc consts  --      1.9048                 1.8140                 1.2048
 IR Inten    --     39.1863                15.5281                53.3992

                     43                     44                     45
                      A                      A                      A
 Frequencies --   1223.0792              1242.6869              1254.7005
 Red. masses --      1.5896                 1.6311                 1.5295
 Frc consts  --      1.4010                 1.4841                 1.4186
 IR Inten    --     28.1152                45.8378                12.0514

                     46                     47                     48
                      A                      A                      A
 Frequencies --   1290.0799              1306.6069              1308.0406
 Red. masses --      1.2105                 1.1665                 1.1774
 Frc consts  --      1.1869                 1.1733                 1.1869
 IR Inten    --      2.8678                 2.9022                16.7657

                     49                     50                     51
                      A                      A                      A
 Frequencies --   1328.9434              1344.5516              1352.1599
 Red. masses --      1.2681                 1.2940                 1.2432
 Frc consts  --      1.3195                 1.3783                 1.3392
 IR Inten    --      7.6505                 4.2001                 6.6050

                     52                     53                     54
                      A                      A                      A
 Frequencies --   1357.3492              1367.0718              1371.0123
 Red. masses --      1.2488                 1.4221                 1.3702
 Frc consts  --      1.3556                 1.5659                 1.5175
 IR Inten    --      4.7895                 1.3555                 0.6417

                     55                     56                     57
                      A                      A                      A
 Frequencies --   1384.0330              1399.2827              1403.1140
 Red. masses --      1.4315                 1.2556                 1.4126
 Frc consts  --      1.6156                 1.4484                 1.6385
 IR Inten    --     14.5354                 7.3927                 9.0364

                     58                     59                     60
                      A                      A                      A
 Frequencies --   1414.7754              1416.0213              1426.3585
 Red. masses --      1.4351                 1.4050                 1.3905
 Frc consts  --      1.6924                 1.6599                 1.6667
 IR Inten    --      5.7928                20.2719                27.9938

                     61                     62                     63
                      A                      A                      A
 Frequencies --   1428.8547              1481.1448              1488.4653
 Red. masses --      1.4304                 1.0940                 1.0785
 Frc consts  --      1.7206                 1.4141                 1.4078
 IR Inten    --      9.0858                 9.5095                 2.2870

                     64                     65                     66
                      A                      A                      A
 Frequencies --   1493.7988              1497.9794              1501.8465
 Red. masses --      1.0950                 1.0911                 1.0988
 Frc consts  --      1.4397                 1.4425                 1.4602
 IR Inten    --      8.4427                 5.2320                 2.0404

                     67                     68                     69
                      A                      A                      A
 Frequencies --   1504.1870              1514.8674              1524.8560
 Red. masses --      1.0984                 1.1013                 1.0865
 Frc consts  --      1.4642                 1.4891                 1.4885
 IR Inten    --     11.0476                 8.1986                 3.6653

                     70                     71                     72
                      A                      A                      A
 Frequencies --   3014.3783              3020.0612              3059.8319
 Red. masses --      1.0692                 1.0706                 1.0838
 Frc consts  --      5.7243                 5.7530                 5.9787
 IR Inten    --     39.0227                82.2407                62.2956

                     73                     74                     75
                      A                      A                      A
 Frequencies --   3060.2411              3070.7135              3075.2887
 Red. masses --      1.0690                 1.0634                 1.0658
 Frc consts  --      5.8985                 5.9076                 5.9386
 IR Inten    --     40.8122                37.5729                19.6828

                     76                     77                     78
                      A                      A                      A
 Frequencies --   3077.2761              3078.0172              3082.4911
 Red. masses --      1.0602                 1.0639                 1.0633
 Frc consts  --      5.9155                 5.9385                 5.9525
 IR Inten    --     28.5516                38.0997                39.9942

                     79                     80                     81
                      A                      A                      A
 Frequencies --   3109.0193              3117.0113              3119.7353
 Red. masses --      1.0862                 1.0989                 1.0999
 Frc consts  --      6.1857                 6.2904                 6.3070
 IR Inten    --     21.6313                32.9035                42.2761

                     82                     83                     84
                      A                      A                      A
 Frequencies --   3128.2456              3131.5784              3131.8044
 Red. masses --      1.1040                 1.0959                 1.1005
 Frc consts  --      6.3656                 6.3318                 6.3596
 IR Inten    --     33.1564                13.0001                78.1941

                     85                     86                     87
                      A                      A                      A
 Frequencies --   3134.7455              3136.7429              3143.2673
 Red. masses --      1.0960                 1.0993                 1.1002
 Frc consts  --      6.3452                 6.3726                 6.4043
 IR Inten    --     43.4492                76.0517                41.9910

 - Thermochemistry -
 -------------------
 Temperature   298.150 Kelvin.  Pressure   1.00000 Atm.
 Atom     1 has atomic number  6 and mass  12.00000

 Molecular mass:   186.12559 amu.
 Principal axes and moments of inertia in atomic units:
                           1         2         3
     Eigenvalues --   919.681544401.462484540.39207
           X            0.99993  -0.00592  -0.01022
           Y            0.00617   0.99969   0.02410
           Z            0.01008  -0.02416   0.99966
 This molecule is an asymmetric top.
 Rotational symmetry number  1.
 Warning -- assumption of classical behavior for rotation
           may cause significant error
 Rotational temperatures (Kelvin)      0.09418     0.01968     0.01908
 Rotational constants (GHZ):           1.96235     0.41003     0.39749
    1 imaginary frequencies ignored.
 Zero-point vibrational energy     737054.1 (Joules/Mol)
                                  176.16016 (Kcal/Mol)
 Warning -- explicit consideration of  15 degrees of freedom as
           vibrations may cause significant error
 Vibrational temperatures:     91.31   116.79   205.51   245.09   312.14
          (Kelvin)            364.76   388.69   442.97   523.00   532.08
                              632.05   652.49   663.60   707.63   795.09
                              895.14   909.11   941.05  1127.16  1185.70
                             1211.15  1270.06  1280.85  1292.56  1325.14
                             1366.44  1396.70  1408.28  1433.66  1451.05
                             1504.75  1525.72  1543.87  1557.59  1602.24
                             1652.99  1661.25  1679.01  1683.90  1712.61
                             1741.93  1759.74  1787.95  1805.23  1856.14
                             1879.92  1881.98  1912.05  1934.51  1945.46
                             1952.92  1966.91  1972.58  1991.31  2013.26
                             2018.77  2035.55  2037.34  2052.21  2055.80
                             2131.04  2141.57  2149.24  2155.26  2160.82
                             2164.19  2179.56  2193.93  4337.02  4345.19
                             4402.42  4403.00  4418.07  4424.65  4427.51
                             4428.58  4435.02  4473.19  4484.68  4488.60
                             4500.85  4505.64  4505.97  4510.20  4513.07
                             4522.46

 Zero-point correction=                           0.280729 (Hartree/Particle)
 Thermal correction to Energy=                    0.291715
 Thermal correction to Enthalpy=                  0.292660
 Thermal correction to Gibbs Free Energy=         0.243867
 Sum of electronic and zero-point Energies=           -617.213139
 Sum of electronic and thermal Energies=              -617.202153
 Sum of electronic and thermal Enthalpies=            -617.201209
 Sum of electronic and thermal Free Energies=         -617.250001

                     E (Thermal)             CV                S
                      KCal/Mol        Cal/Mol-Kelvin    Cal/Mol-Kelvin
 Total                  183.054             44.848            102.692
 Electronic               0.000              0.000              0.000
 Translational            0.889              2.981             41.570
 Rotational               0.889              2.981             31.286
 Vibrational            181.277             38.887             29.836
 Vibration     1          0.597              1.972              4.346
 Vibration     2          0.600              1.962              3.862
 Vibration     3          0.616              1.910              2.766
 Vibration     4          0.625              1.879              2.432
 Vibration     5          0.646              1.815              1.984
 Vibration     6          0.665              1.757              1.706
 Vibration     7          0.674              1.728              1.595
 Vibration     8          0.698              1.659              1.374
 Vibration     9          0.737              1.547              1.107
 Vibration    10          0.742              1.534              1.081
 Vibration    11          0.799              1.384              0.829
 Vibration    12          0.812              1.353              0.785
 Vibration    13          0.819              1.336              0.763
 Vibration    14          0.848              1.268              0.679
 Vibration    15          0.908              1.134              0.539

                           ! Non-Optimized Parameters !
 Normal termination of Gaussian 16 at Mon Nov  5 01:13:05 2018.
