 Gaussian 16, Revision A.03,
 Gaussian 16:  ES64L-G16RevA.03 25-Dec-2016

 ----------------------------------------------------------------------
 #M062X/6-311++G(2d,2p) opt=ModRedundant freq=noraman SCRF=(Solvent=Wat
 er)
 ----------------------------------------------------------------------

 -----------------------------
 2SO_1_e4_D_PSI.inp_extract_18
 -----------------------------
 Symbolic Z-matrix:
 Charge =  0 Multiplicity = 1

 SCF Done:  E(RM062X) =  -617.495023198     A.U. after   12 cycles
 SCF Done:  E(RM062X) =  -617.496640031     A.U. after   11 cycles
 SCF Done:  E(RM062X) =  -617.496857053     A.U. after   10 cycles
 SCF Done:  E(RM062X) =  -617.496925303     A.U. after    9 cycles
 SCF Done:  E(RM062X) =  -617.496946011     A.U. after    9 cycles
 SCF Done:  E(RM062X) =  -617.496950472     A.U. after    8 cycles
 SCF Done:  E(RM062X) =  -617.496951002     A.U. after    7 cycles
 SCF Done:  E(RM062X) =  -617.496951048     A.U. after    6 cycles
 Optimization completed.
    -- Stationary point found.
 Normal termination of Gaussian 16 at Mon Nov  5 01:23:59 2018.

 ----------------------------------------------------------------------
 #N Geom=AllCheck Guess=TCheck SCRF=Check GenChk RM062X/6-311++G(2d,2p)
  Freq
 ----------------------------------------------------------------------

 Structure from the checkpoint file:  "2SO_1_e4_D_PSI.inp_extract_18.chk"
 -----------------------------
 2SO_1_e4_D_PSI.inp_extract_18
 -----------------------------
 Charge =  0 Multiplicity = 1

                         Standard orientation:
 ---------------------------------------------------------------------
 Center     Atomic      Atomic             Coordinates (Angstroms)
 Number     Number       Type             X           Y           Z
 ---------------------------------------------------------------------
      1          6           0        1.190509   -0.517519   -0.299608
      2          6           0       -3.760114    0.602821    0.565714
      3          6           0       -1.183445   -0.318306   -0.567695
      4          6           0       -2.347989    1.034923    0.973583
      5          6           0       -3.673591   -0.451098   -0.550296
      6          6           0        1.454170    0.978659   -0.419528
      7          6           0        2.154101   -1.138957    0.701966
      8          6           0        3.802785    0.478119    0.288026
      9          8           0        3.499162   -0.910745    0.332721
     10          6           0        2.935901    1.195516   -0.733093
     11          8           0       -0.110492   -0.867448    0.154687
     12          6           0       -2.381838   -1.247806   -0.395779
     13          8           0       -1.475836    0.998003   -0.152542
     14          1           0        1.358244   -0.984394   -1.278737
     15          1           0       -4.337438    1.462836    0.228918
     16          1           0       -4.267377    0.191484    1.439496
     17          1           0       -0.905892   -0.226036   -1.621232
     18          1           0       -2.328433    2.056252    1.345062
     19          1           0       -1.950814    0.386545    1.758141
     20          1           0       -3.671263    0.040788   -1.524179
     21          1           0       -4.538853   -1.110773   -0.528038
     22          1           0        0.825473    1.424740   -1.188256
     23          1           0        1.196641    1.456135    0.529466
     24          1           0        2.009229   -2.216616    0.746546
     25          1           0        1.954557   -0.714966    1.694293
     26          1           0        3.650245    0.912084    1.283852
     27          1           0        4.858839    0.551299    0.037543
     28          1           0        3.174242    2.259221   -0.731761
     29          1           0        3.168232    0.807654   -1.727406
     30          1           0       -2.333752   -1.696845    0.598587
     31          1           0       -2.307481   -2.055999   -1.120947
 ---------------------------------------------------------------------

 SCF Done:  E(RM062X) =  -617.496951048     A.U. after    1 cycles

 The electronic state is 1-A.
 Alpha  occ. eigenvalues --  -19.63414 -19.63173 -19.62828 -10.63626 -10.58810
 Alpha  occ. eigenvalues --  -10.58130 -10.58040 -10.57837 -10.53219 -10.53215
 Alpha  occ. eigenvalues --  -10.53164 -10.53032 -10.52880  -1.19978  -1.16723
 Alpha  occ. eigenvalues --   -1.13769  -0.90824  -0.89638  -0.87418  -0.84177
 Alpha  occ. eigenvalues --   -0.75133  -0.74648  -0.72679  -0.70292  -0.65899
 Alpha  occ. eigenvalues --   -0.62538  -0.60405  -0.59066  -0.57651  -0.56850
 Alpha  occ. eigenvalues --   -0.55290  -0.53026  -0.51787  -0.50280  -0.49486
 Alpha  occ. eigenvalues --   -0.47844  -0.46973  -0.46087  -0.45393  -0.44204
 Alpha  occ. eigenvalues --   -0.43850  -0.43126  -0.41048  -0.40570  -0.39408
 Alpha  occ. eigenvalues --   -0.38269  -0.37595  -0.36195  -0.34365  -0.34225
 Alpha  occ. eigenvalues --   -0.32331
 Alpha virt. eigenvalues --   -0.00069   0.00767   0.00794   0.01035   0.02158
 Alpha virt. eigenvalues --    0.02393   0.02592   0.03440   0.03554   0.04242
 Alpha virt. eigenvalues --    0.04574   0.04884   0.05556   0.05765   0.06941

 Mulliken charges:
               1
     1  C   -0.101682
     2  C   -0.521530
     3  C   -0.120141
     4  C   -0.013088
     5  C   -0.192643
     6  C   -0.204012
     7  C   -0.238737
     8  C   -0.221090
     9  O   -0.345936
    10  C   -0.476959
    11  O   -0.309098
    12  C   -0.363187
    13  O   -0.264079
    14  H    0.258863
    15  H    0.159568
    16  H    0.149650
    17  H    0.235082
    18  H    0.199244
    19  H    0.142082
    20  H    0.155447
    21  H    0.197363
    22  H    0.194900
    23  H    0.229403
    24  H    0.197881
    25  H    0.191245
    26  H    0.140774
    27  H    0.208722
    28  H    0.169496
    29  H    0.170169
    30  H    0.202560
    31  H    0.169734
 Sum of Mulliken charges =  -0.00000

 Dipole moment (field-independent basis, Debye):
    X=             -1.9933    Y=              1.2011    Z=             -0.3145  Tot=              2.3483
 Quadrupole moment (field-independent basis, Debye-Ang):
   XX=            -78.3350   YY=            -81.7864   ZZ=            -77.5654
   XY=              8.5096   XZ=             -2.0483   YZ=              2.5038

  Exact polarizability: 176.845   1.089 156.665  -2.099   2.025 152.502
 Approx polarizability: 146.355  -0.213 143.081  -2.682   0.717 142.515

                      1                      2                      3
                      A                      A                      A
 Frequencies --     44.2021                50.8884                85.9867
 Red. masses --      3.7258                 3.4702                 3.6728
 Frc consts  --      0.0043                 0.0053                 0.0160
 IR Inten    --      0.1929                 2.4168                 4.0285

                      4                      5                      6
                      A                      A                      A
 Frequencies --    126.9432               177.0651               235.5723
 Red. masses --      3.1300                 2.1567                 2.4644
 Frc consts  --      0.0297                 0.0398                 0.0806
 IR Inten    --      1.0253                 0.6952                 5.4087

                      7                      8                      9
                      A                      A                      A
 Frequencies --    253.5839               262.8139               265.7984
 Red. masses --      2.0719                 2.8159                 4.3530
 Frc consts  --      0.0785                 0.1146                 0.1812
 IR Inten    --      5.1624                 1.1931                 0.5306

                     10                     11                     12
                      A                      A                      A
 Frequencies --    349.5246               385.5327               440.4143
 Red. masses --      2.6011                 2.4064                 4.0522
 Frc consts  --      0.1872                 0.2107                 0.4631
 IR Inten    --      6.0732                19.8046                 2.2486

                     13                     14                     15
                      A                      A                      A
 Frequencies --    454.9713               466.8413               509.6310
 Red. masses --      2.7972                 2.6719                 2.6640
 Frc consts  --      0.3411                 0.3431                 0.4077
 IR Inten    --      6.4093                 0.0794                 4.9764

                     16                     17                     18
                      A                      A                      A
 Frequencies --    547.7946               610.6771               632.5844
 Red. masses --      3.0925                 4.0300                 1.9852
 Frc consts  --      0.5468                 0.8855                 0.4681
 IR Inten    --      4.6356                12.4110                 9.2367

                     19                     20                     21
                      A                      A                      A
 Frequencies --    653.4768               783.1158               826.5282
 Red. masses --      3.3724                 1.2915                 2.1907
 Frc consts  --      0.8485                 0.4667                 0.8818
 IR Inten    --      9.7648                 4.9866                 0.3792

                     22                     23                     24
                      A                      A                      A
 Frequencies --    844.3228               876.9582               895.2254
 Red. masses --      2.5922                 1.3981                 2.5906
 Frc consts  --      1.0888                 0.6335                 1.2233
 IR Inten    --     10.3147                12.2883                22.1882

                     25                     26                     27
                      A                      A                      A
 Frequencies --    898.2215               919.6591               944.1486
 Red. masses --      2.4516                 2.1657                 2.1813
 Frc consts  --      1.1654                 1.0792                 1.1456
 IR Inten    --      1.0952                34.7882                40.4089

                     28                     29                     30
                      A                      A                      A
 Frequencies --    969.5071               985.6414               999.0898
 Red. masses --      1.8326                 2.2133                 1.6179
 Frc consts  --      1.0149                 1.2669                 0.9515
 IR Inten    --      6.4855                19.5945                 6.1899

                     31                     32                     33
                      A                      A                      A
 Frequencies --   1008.0634              1059.3282              1069.0317
 Red. masses --      1.9264                 1.7262                 3.4263
 Frc consts  --      1.1534                 1.1413                 2.3070
 IR Inten    --      4.5224                 1.4510               279.0048

                     34                     35                     36
                      A                      A                      A
 Frequencies --   1075.0249              1085.1772              1119.4116
 Red. masses --      1.8505                 2.2699                 4.3059
 Frc consts  --      1.2600                 1.5749                 3.1790
 IR Inten    --     64.1000                20.5478               271.4860

                     37                     38                     39
                      A                      A                      A
 Frequencies --   1150.2691              1154.8704              1161.9543
 Red. masses --      2.5138                 3.0362                 3.4182
 Frc consts  --      1.9597                 2.3859                 2.7191
 IR Inten    --     29.8745                45.0407               304.1275

                     40                     41                     42
                      A                      A                      A
 Frequencies --   1179.0209              1185.0761              1210.3453
 Red. masses --      2.1473                 2.4418                 1.5124
 Frc consts  --      1.7587                 2.0205                 1.3054
 IR Inten    --      6.2451                23.6785                61.1707

                     43                     44                     45
                      A                      A                      A
 Frequencies --   1220.4444              1244.4875              1249.3489
 Red. masses --      1.5288                 1.6549                 1.4631
 Frc consts  --      1.3416                 1.5101                 1.3455
 IR Inten    --      4.0040                49.3684                11.3462

                     46                     47                     48
                      A                      A                      A
 Frequencies --   1289.6550              1300.6980              1308.1471
 Red. masses --      1.2064                 1.1685                 1.1701
 Frc consts  --      1.1822                 1.1648                 1.1798
 IR Inten    --      4.4664                12.9178                 8.1632

                     49                     50                     51
                      A                      A                      A
 Frequencies --   1330.8585              1339.9130              1350.5801
 Red. masses --      1.2771                 1.2225                 1.2908
 Frc consts  --      1.3327                 1.2932                 1.3872
 IR Inten    --      8.6181                 2.7908                 4.1662

                     52                     53                     54
                      A                      A                      A
 Frequencies --   1352.4878              1366.7100              1372.9595
 Red. masses --      1.2587                 1.4284                 1.3876
 Frc consts  --      1.3566                 1.5720                 1.5411
 IR Inten    --     16.8732                 2.4283                 0.2583

                     55                     56                     57
                      A                      A                      A
 Frequencies --   1382.3675              1400.3389              1405.4245
 Red. masses --      1.4460                 1.2729                 1.4392
 Frc consts  --      1.6280                 1.4707                 1.6748
 IR Inten    --      8.9287                12.9378                 9.0601

                     58                     59                     60
                      A                      A                      A
 Frequencies --   1409.9841              1420.4536              1428.0004
 Red. masses --      1.4461                 1.4380                 1.3345
 Frc consts  --      1.6939                 1.7095                 1.6034
 IR Inten    --     26.3306                19.7667                14.5740

                     61                     62                     63
                      A                      A                      A
 Frequencies --   1439.3477              1479.6791              1487.7092
 Red. masses --      1.4779                 1.0960                 1.0790
 Frc consts  --      1.8039                 1.4138                 1.4070
 IR Inten    --      8.9395                 7.4597                 2.5091

                     64                     65                     66
                      A                      A                      A
 Frequencies --   1490.1630              1493.6593              1502.3550
 Red. masses --      1.1234                 1.0963                 1.0848
 Frc consts  --      1.4698                 1.4410                 1.4426
 IR Inten    --     14.7119                 7.0195                 0.7421

                     67                     68                     69
                      A                      A                      A
 Frequencies --   1504.2271              1514.8451              1524.5773
 Red. masses --      1.0980                 1.1014                 1.0867
 Frc consts  --      1.4638                 1.4891                 1.4882
 IR Inten    --      9.9372                 8.4530                 4.1655

                     70                     71                     72
                      A                      A                      A
 Frequencies --   3010.8873              3020.3309              3023.3399
 Red. masses --      1.0788                 1.0710                 1.0722
 Frc consts  --      5.7624                 5.7565                 5.7741
 IR Inten    --     19.8077                44.2655               135.0717

                     73                     74                     75
                      A                      A                      A
 Frequencies --   3061.2015              3065.6972              3065.9762
 Red. masses --      1.0729                 1.0748                 1.0737
 Frc consts  --      5.9236                 5.9515                 5.9468
 IR Inten    --     70.1159                10.5703                16.2523

                     76                     77                     78
                      A                      A                      A
 Frequencies --   3070.6286              3074.7969              3078.4272
 Red. masses --      1.0616                 1.0667                 1.0626
 Frc consts  --      5.8975                 5.9419                 5.9329
 IR Inten    --     60.6374                 9.7076                50.2267

                     79                     80                     81
                      A                      A                      A
 Frequencies --   3081.6550              3117.1118              3118.9039
 Red. masses --      1.0638                 1.0990                 1.1000
 Frc consts  --      5.9521                 6.2914                 6.3042
 IR Inten    --     45.3744                30.9539                44.1740

                     82                     83                     84
                      A                      A                      A
 Frequencies --   3130.4263              3131.0240              3132.8093
 Red. masses --      1.0990                 1.1018                 1.0943
 Frc consts  --      6.3453                 6.3637                 6.3276
 IR Inten    --     36.8080                45.7650                49.9604

                     85                     86                     87
                      A                      A                      A
 Frequencies --   3134.1574              3135.2664              3145.0815
 Red. masses --      1.0999                 1.0961                 1.0998
 Frc consts  --      6.3655                 6.3480                 6.4095
 IR Inten    --     47.5855                41.8904                47.6897

 - Thermochemistry -
 -------------------
 Temperature   298.150 Kelvin.  Pressure   1.00000 Atm.
 Atom     1 has atomic number  6 and mass  12.00000

 Molecular mass:   186.12559 amu.
 Principal axes and moments of inertia in atomic units:
                           1         2         3
     Eigenvalues --   832.323814714.753195049.83261
           X            0.99993   0.01145  -0.00252
           Y           -0.01140   0.99975   0.01916
           Z            0.00274  -0.01913   0.99981
 This molecule is an asymmetric top.
 Rotational symmetry number  1.
 Warning -- assumption of classical behavior for rotation
           may cause significant error
 Rotational temperatures (Kelvin)      0.10406     0.01837     0.01715
 Rotational constants (GHZ):           2.16832     0.38279     0.35739
 Zero-point vibrational energy     736669.0 (Joules/Mol)
                                  176.06811 (Kcal/Mol)
 Warning -- explicit consideration of  17 degrees of freedom as
           vibrations may cause significant error
 Vibrational temperatures:     63.60    73.22   123.72   182.64   254.76
          (Kelvin)            338.94   364.85   378.13   382.42   502.89
                              554.70   633.66   654.60   671.68   733.25
                              788.15   878.63   910.15   940.21  1126.73
                             1189.19  1214.79  1261.75  1288.03  1292.34
                             1323.18  1358.42  1394.90  1418.12  1437.47
                             1450.38  1524.14  1538.10  1546.72  1561.33
                             1610.58  1654.98  1661.60  1671.79  1696.35
                             1705.06  1741.42  1755.95  1790.54  1797.53
                             1855.53  1871.41  1882.13  1914.81  1927.84
                             1943.18  1945.93  1966.39  1975.38  1988.92
                             2014.78  2022.09  2028.65  2043.72  2054.57
                             2070.90  2128.93  2140.48  2144.01  2149.04
                             2161.55  2164.25  2179.52  2193.53  4332.00
                             4345.58  4349.91  4404.39  4410.85  4411.26
                             4417.95  4423.95  4429.17  4433.81  4484.83
                             4487.41  4503.99  4504.85  4507.41  4509.35
                             4510.95  4525.07

 Zero-point correction=                           0.280582 (Hartree/Particle)
 Thermal correction to Energy=                    0.292471
 Thermal correction to Enthalpy=                  0.293415
 Thermal correction to Gibbs Free Energy=         0.241909
 Sum of electronic and zero-point Energies=           -617.216369
 Sum of electronic and thermal Energies=              -617.204480
 Sum of electronic and thermal Enthalpies=            -617.203536
 Sum of electronic and thermal Free Energies=         -617.255042

                     E (Thermal)             CV                S
                      KCal/Mol        Cal/Mol-Kelvin    Cal/Mol-Kelvin
 Total                  183.528             46.843            108.402
 Electronic               0.000              0.000              0.000
 Translational            0.889              2.981             41.570
 Rotational               0.889              2.981             31.361
 Vibrational            181.751             40.882             35.472
 Vibration     1          0.595              1.980              5.061
 Vibration     2          0.595              1.977              4.783
 Vibration     3          0.601              1.959              3.749
 Vibration     4          0.611              1.926              2.992
 Vibration     5          0.628              1.871              2.359
 Vibration     6          0.655              1.786              1.836
 Vibration     7          0.665              1.757              1.706
 Vibration     8          0.670              1.741              1.643
 Vibration     9          0.672              1.736              1.623
 Vibration    10          0.727              1.576              1.168
 Vibration    11          0.754              1.501              1.017
 Vibration    12          0.800              1.382              0.825
 Vibration    13          0.813              1.350              0.781
 Vibration    14          0.824              1.324              0.746
 Vibration    15          0.865              1.229              0.634
 Vibration    16          0.903              1.145              0.549
 Vibration    17          0.970              1.009              0.432

 Optimization completed.
    -- Stationary point found.
 Normal termination of Gaussian 16 at Mon Nov  5 02:15:02 2018.
