 Gaussian 16, Revision A.03,
 Gaussian 16:  ES64L-G16RevA.03 25-Dec-2016

 ----------------------------------------------------------------------
 #M062X/6-311++G(2d,2p) opt=ModRedundant freq=noraman SCRF=(Solvent=Wat
 er)
 ----------------------------------------------------------------------

 -----------------------------
 2SO_1_e4_D_PSI.inp_extract_24
 -----------------------------
 Symbolic Z-matrix:
 Charge =  0 Multiplicity = 1

 SCF Done:  E(RM062X) =  -617.496782583     A.U. after   12 cycles
 SCF Done:  E(RM062X) =  -617.498314734     A.U. after   10 cycles
 SCF Done:  E(RM062X) =  -617.498486618     A.U. after   10 cycles
 SCF Done:  E(RM062X) =  -617.498532584     A.U. after   10 cycles
 SCF Done:  E(RM062X) =  -617.498542832     A.U. after    9 cycles
 SCF Done:  E(RM062X) =  -617.498545274     A.U. after    8 cycles
 SCF Done:  E(RM062X) =  -617.498545485     A.U. after    7 cycles
 SCF Done:  E(RM062X) =  -617.498545535     A.U. after    6 cycles
 Optimization completed.
    -- Stationary point found.
 Normal termination of Gaussian 16 at Mon Nov  5 01:29:21 2018.

 ----------------------------------------------------------------------
 #N Geom=AllCheck Guess=TCheck SCRF=Check GenChk RM062X/6-311++G(2d,2p)
  Freq
 ----------------------------------------------------------------------

 Structure from the checkpoint file:  "2SO_1_e4_D_PSI.inp_extract_24.chk"
 -----------------------------
 2SO_1_e4_D_PSI.inp_extract_24
 -----------------------------
 Charge =  0 Multiplicity = 1

                         Standard orientation:
 ---------------------------------------------------------------------
 Center     Atomic      Atomic             Coordinates (Angstroms)
 Number     Number       Type             X           Y           Z
 ---------------------------------------------------------------------
      1          6           0        1.104317    0.015660   -0.037926
      2          6           0       -3.866869    0.679864   -0.065643
      3          6           0       -1.192190   -0.572648   -0.197117
      4          6           0       -2.510454    1.379699   -0.202320
      5          6           0       -3.658446   -0.841194    0.015102
      6          6           0        1.857328    1.112216    0.693105
      7          6           0        1.948122   -1.253854   -0.084834
      8          6           0        3.959948   -0.050026   -0.000441
      9          8           0        3.194370   -1.015030   -0.711846
     10          6           0        3.240598    1.288233    0.065901
     11          8           0       -0.112654   -0.257388    0.646836
     12          6           0       -2.312486   -1.136228    0.670513
     13          8           0       -1.604872    0.557120   -0.934513
     14          1           0        0.890322    0.344414   -1.058513
     15          1           0       -4.508561    0.927930   -0.910041
     16          1           0       -4.359727    1.044469    0.836624
     17          1           0       -0.875829   -1.293827   -0.955189
     18          1           0       -2.590084    2.315141   -0.749836
     19          1           0       -2.081663    1.600514    0.778001
     20          1           0       -3.664147   -1.268632   -0.988646
     21          1           0       -4.468073   -1.313620    0.567849
     22          1           0        1.284121    2.038993    0.662479
     23          1           0        1.959244    0.818161    1.741730
     24          1           0        1.446636   -2.035025   -0.654482
     25          1           0        2.101176   -1.612499    0.940854
     26          1           0        4.155301   -0.422818    1.012517
     27          1           0        4.908535    0.034369   -0.526161
     28          1           0        3.838359    1.994996    0.641507
     29          1           0        3.142212    1.686551   -0.946192
     30          1           0       -2.262231   -0.664087    1.653861
     31          1           0       -2.149560   -2.202977    0.811792
 ---------------------------------------------------------------------

 SCF Done:  E(RM062X) =  -617.498545535     A.U. after    1 cycles

 The electronic state is 1-A.
 Alpha  occ. eigenvalues --  -19.63441 -19.63170 -19.63065 -10.63690 -10.58575
 Alpha  occ. eigenvalues --  -10.58082 -10.58019 -10.57895 -10.53306 -10.53295
 Alpha  occ. eigenvalues --  -10.53237 -10.53229 -10.52927  -1.20198  -1.16660
 Alpha  occ. eigenvalues --   -1.13750  -0.90988  -0.89817  -0.87058  -0.84285
 Alpha  occ. eigenvalues --   -0.75247  -0.74233  -0.73230  -0.70276  -0.65720
 Alpha  occ. eigenvalues --   -0.62550  -0.60585  -0.59089  -0.58333  -0.56734
 Alpha  occ. eigenvalues --   -0.55363  -0.52911  -0.52390  -0.49716  -0.49202
 Alpha  occ. eigenvalues --   -0.47788  -0.46873  -0.45989  -0.45603  -0.44581
 Alpha  occ. eigenvalues --   -0.44426  -0.43063  -0.40626  -0.40285  -0.38985
 Alpha  occ. eigenvalues --   -0.38501  -0.38228  -0.36117  -0.35746  -0.34159
 Alpha  occ. eigenvalues --   -0.31912
 Alpha virt. eigenvalues --   -0.00093   0.00754   0.00885   0.01005   0.02106
 Alpha virt. eigenvalues --    0.02411   0.02554   0.03621   0.03700   0.04157
 Alpha virt. eigenvalues --    0.04311   0.04677   0.05601   0.05843   0.06911

 Mulliken charges:
               1
     1  C   -0.207950
     2  C   -0.524711
     3  C   -0.313167
     4  C   -0.008213
     5  C   -0.189854
     6  C   -0.187814
     7  C   -0.246490
     8  C   -0.168979
     9  O   -0.328329
    10  C   -0.359981
    11  O   -0.254097
    12  C   -0.246489
    13  O   -0.268725
    14  H    0.272264
    15  H    0.162861
    16  H    0.146153
    17  H    0.244887
    18  H    0.203172
    19  H    0.139560
    20  H    0.155374
    21  H    0.193246
    22  H    0.139269
    23  H    0.204924
    24  H    0.191996
    25  H    0.188154
    26  H    0.138113
    27  H    0.208971
    28  H    0.186437
    29  H    0.162330
    30  H    0.197863
    31  H    0.169224
 Sum of Mulliken charges =  -0.00000

 Dipole moment (field-independent basis, Debye):
    X=             -1.3172    Y=              0.8410    Z=              1.5888  Tot=              2.2286
 Quadrupole moment (field-independent basis, Debye-Ang):
   XX=            -72.4223   YY=            -77.6431   ZZ=            -84.1682
   XY=              5.5349   XZ=              2.7903   YZ=             -0.1566

  Exact polarizability: 178.743   1.561 159.703   0.295  -0.353 147.618
 Approx polarizability: 147.222   0.498 142.086   0.017   0.183 142.411

                      1                      2                      3
                      A                      A                      A
 Frequencies --     23.8294                46.5199                73.5120
 Red. masses --      3.5988                 4.0222                 3.4776
 Frc consts  --      0.0012                 0.0051                 0.0111
 IR Inten    --      1.1554                 0.7881                 1.4000

                      4                      5                      6
                      A                      A                      A
 Frequencies --    113.8054               182.3792               205.8611
 Red. masses --      3.0583                 2.9330                 1.8266
 Frc consts  --      0.0233                 0.0575                 0.0456
 IR Inten    --      3.7553                 0.3609                 2.2403

                      7                      8                      9
                      A                      A                      A
 Frequencies --    247.3546               267.7773               306.1900
 Red. masses --      2.1440                 3.5650                 2.3564
 Frc consts  --      0.0773                 0.1506                 0.1302
 IR Inten    --      4.5152                 1.6607                 4.1628

                     10                     11                     12
                      A                      A                      A
 Frequencies --    361.0816               383.6738               447.4206
 Red. masses --      3.7125                 2.5564                 3.9069
 Frc consts  --      0.2852                 0.2217                 0.4608
 IR Inten    --     29.8182                 5.5382                 4.1229

                     13                     14                     15
                      A                      A                      A
 Frequencies --    451.8130               471.1289               502.3345
 Red. masses --      2.2506                 3.6218                 3.0840
 Frc consts  --      0.2707                 0.4736                 0.4585
 IR Inten    --      1.5163                 2.6883                 6.3479

                     16                     17                     18
                      A                      A                      A
 Frequencies --    545.4458               595.9958               632.3330
 Red. masses --      3.6121                 2.4153                 1.9634
 Frc consts  --      0.6332                 0.5055                 0.4626
 IR Inten    --      0.3512                12.5270                 6.2718

                     19                     20                     21
                      A                      A                      A
 Frequencies --    667.9838               784.7820               834.3820
 Red. masses --      3.9510                 1.2994                 2.2728
 Frc consts  --      1.0387                 0.4715                 0.9323
 IR Inten    --      5.4288                 5.5289                 1.3472

                     22                     23                     24
                      A                      A                      A
 Frequencies --    842.6609               879.6081               893.7905
 Red. masses --      2.5245                 1.4108                 2.5313
 Frc consts  --      1.0562                 0.6431                 1.1914
 IR Inten    --     10.1648                10.8164                11.2291

                     25                     26                     27
                      A                      A                      A
 Frequencies --    898.8613               919.5300               942.6031
 Red. masses --      2.3311                 2.1497                 2.3048
 Frc consts  --      1.1097                 1.0709                 1.2065
 IR Inten    --      9.8091                32.8622                38.4425

                     28                     29                     30
                      A                      A                      A
 Frequencies --    970.9726               986.6238               996.0646
 Red. masses --      1.7569                 2.2885                 1.4962
 Frc consts  --      0.9759                 1.3125                 0.8746
 IR Inten    --     11.3255                46.4165                 4.6163

                     31                     32                     33
                      A                      A                      A
 Frequencies --   1007.2638              1052.2554              1071.0176
 Red. masses --      1.9683                 1.7095                 2.1047
 Frc consts  --      1.1766                 1.1152                 1.4224
 IR Inten    --      5.9803                10.5769               279.8127

                     34                     35                     36
                      A                      A                      A
 Frequencies --   1078.9020              1086.6474              1114.1436
 Red. masses --      2.7846                 2.5547                 3.9629
 Frc consts  --      1.9097                 1.7773                 2.8983
 IR Inten    --     65.9057                53.5352               289.4079

                     37                     38                     39
                      A                      A                      A
 Frequencies --   1148.3623              1150.7883              1155.1767
 Red. masses --      3.5822                 3.4205                 2.3943
 Frc consts  --      2.7832                 2.6689                 1.8824
 IR Inten    --    233.5423                 6.8956                28.7386

                     40                     41                     42
                      A                      A                      A
 Frequencies --   1170.7775              1192.7789              1209.9865
 Red. masses --      2.3355                 2.0803                 1.4091
 Frc consts  --      1.8862                 1.7438                 1.2155
 IR Inten    --     37.0152                37.3972                 5.1443

                     43                     44                     45
                      A                      A                      A
 Frequencies --   1225.3440              1243.5387              1251.0318
 Red. masses --      1.6487                 1.6550                 1.4772
 Frc consts  --      1.4585                 1.5078                 1.3622
 IR Inten    --     22.8486                45.4387                27.4221

                     46                     47                     48
                      A                      A                      A
 Frequencies --   1289.5378              1305.7147              1308.5054
 Red. masses --      1.2004                 1.1818                 1.1825
 Frc consts  --      1.1761                 1.1871                 1.1929
 IR Inten    --      4.0997                16.4612                11.8713

                     49                     50                     51
                      A                      A                      A
 Frequencies --   1330.2637              1340.5885              1346.2895
 Red. masses --      1.2909                 1.2538                 1.2842
 Frc consts  --      1.3459                 1.3276                 1.3714
 IR Inten    --      7.4222                 6.3630                 6.4459

                     52                     53                     54
                      A                      A                      A
 Frequencies --   1352.9476              1366.1777              1373.1045
 Red. masses --      1.2664                 1.4264                 1.3851
 Frc consts  --      1.3657                 1.5686                 1.5386
 IR Inten    --      6.0121                 2.4832                 0.8164

                     55                     56                     57
                      A                      A                      A
 Frequencies --   1382.8775              1398.1263              1402.3902
 Red. masses --      1.4410                 1.4516                 1.2626
 Frc consts  --      1.6236                 1.6718                 1.4631
 IR Inten    --      3.7719                17.3998                13.6071

                     58                     59                     60
                      A                      A                      A
 Frequencies --   1408.6325              1423.8461              1429.8717
 Red. masses --      1.4489                 1.4562                 1.3220
 Frc consts  --      1.6939                 1.7393                 1.5924
 IR Inten    --     28.8027                11.9287                17.4003

                     61                     62                     63
                      A                      A                      A
 Frequencies --   1439.9669              1480.8359              1488.1988
 Red. masses --      1.4505                 1.0918                 1.0787
 Frc consts  --      1.7721                 1.4106                 1.4075
 IR Inten    --      3.1402                 7.7941                 2.6795

                     64                     65                     66
                      A                      A                      A
 Frequencies --   1492.6167              1495.0597              1502.3351
 Red. masses --      1.0956                 1.1120                 1.0889
 Frc consts  --      1.4381                 1.4645                 1.4480
 IR Inten    --      9.1283                10.9977                 0.7132

                     67                     68                     69
                      A                      A                      A
 Frequencies --   1504.4210              1515.0692              1525.0034
 Red. masses --      1.0984                 1.1021                 1.0861
 Frc consts  --      1.4648                 1.4905                 1.4882
 IR Inten    --      9.4826                 9.8592                 4.1141

                     70                     71                     72
                      A                      A                      A
 Frequencies --   3019.6276              3021.9295              3054.1879
 Red. masses --      1.0688                 1.0699                 1.0678
 Frc consts  --      5.7421                 5.7564                 5.8685
 IR Inten    --     27.5202               103.8618                21.8467

                     73                     74                     75
                      A                      A                      A
 Frequencies --   3061.6947              3065.3105              3070.4342
 Red. masses --      1.0721                 1.0793                 1.0706
 Frc consts  --      5.9212                 5.9750                 5.9470
 IR Inten    --     55.9208                 9.4660                17.7847

                     76                     77                     78
                      A                      A                      A
 Frequencies --   3071.8573              3075.4863              3078.7818
 Red. masses --      1.0739                 1.0669                 1.0631
 Frc consts  --      5.9707                 5.9459                 5.9373
 IR Inten    --     75.7585                11.8811                46.7131

                     79                     80                     81
                      A                      A                      A
 Frequencies --   3082.4617              3113.6526              3117.4758
 Red. masses --      1.0632                 1.0987                 1.0993
 Frc consts  --      5.9520                 6.2759                 6.2947
 IR Inten    --     46.7181                44.7905                32.0070

                     82                     83                     84
                      A                      A                      A
 Frequencies --   3121.3986              3123.6814              3132.6248
 Red. masses --      1.1024                 1.0962                 1.1011
 Frc consts  --      6.3284                 6.3019                 6.3662
 IR Inten    --     56.2746                37.5120                43.4320

                     85                     86                     87
                      A                      A                      A
 Frequencies --   3133.9909              3135.0761              3144.7595
 Red. masses --      1.0951                 1.1004                 1.1001
 Frc consts  --      6.3370                 6.3725                 6.4099
 IR Inten    --     42.4066                49.9196                46.5714

 - Thermochemistry -
 -------------------
 Temperature   298.150 Kelvin.  Pressure   1.00000 Atm.
 Atom     1 has atomic number  6 and mass  12.00000

 Molecular mass:   186.12559 amu.
 Principal axes and moments of inertia in atomic units:
                           1         2         3
     Eigenvalues --   819.693824819.777405225.27223
           X            0.99996   0.00827   0.00211
           Y           -0.00827   0.99997  -0.00079
           Z           -0.00211   0.00077   1.00000
 This molecule is an asymmetric top.
 Rotational symmetry number  1.
 Warning -- assumption of classical behavior for rotation
           may cause significant error
 Rotational temperatures (Kelvin)      0.10567     0.01797     0.01658
 Rotational constants (GHZ):           2.20173     0.37444     0.34539
 Zero-point vibrational energy     736667.2 (Joules/Mol)
                                  176.06769 (Kcal/Mol)
 Warning -- explicit consideration of  17 degrees of freedom as
           vibrations may cause significant error
 Vibrational temperatures:     34.29    66.93   105.77   163.74   262.40
          (Kelvin)            296.19   355.89   385.27   440.54   519.52
                              552.02   643.74   650.06   677.85   722.75
                              784.77   857.50   909.79   961.08  1129.13
                             1200.49  1212.40  1265.56  1285.97  1293.26
                             1323.00  1356.20  1397.01  1419.53  1433.11
                             1449.23  1513.96  1540.96  1552.30  1563.44
                             1603.00  1652.24  1655.73  1662.04  1684.49
                             1716.14  1740.90  1763.00  1789.17  1799.96
                             1855.36  1878.63  1882.65  1913.95  1928.81
                             1937.01  1946.59  1965.62  1975.59  1989.65
                             2011.59  2017.73  2026.71  2048.60  2057.27
                             2071.79  2130.59  2141.19  2147.54  2151.06
                             2161.53  2164.53  2179.85  2194.14  4344.57
                             4347.88  4394.30  4405.10  4410.30  4417.67
                             4419.72  4424.94  4429.68  4434.97  4479.85
                             4485.35  4491.00  4494.28  4507.15  4509.11
                             4510.68  4524.61

 Zero-point correction=                           0.280582 (Hartree/Particle)
 Thermal correction to Energy=                    0.292547
 Thermal correction to Enthalpy=                  0.293492
 Thermal correction to Gibbs Free Energy=         0.241093
 Sum of electronic and zero-point Energies=           -617.217964
 Sum of electronic and thermal Energies=              -617.205998
 Sum of electronic and thermal Enthalpies=            -617.205054
 Sum of electronic and thermal Free Energies=         -617.257452

                     E (Thermal)             CV                S
                      KCal/Mol        Cal/Mol-Kelvin    Cal/Mol-Kelvin
 Total                  183.576             46.819            110.281
 Electronic               0.000              0.000              0.000
 Translational            0.889              2.981             41.570
 Rotational               0.889              2.981             31.402
 Vibrational            181.799             40.858             37.310
 Vibration     1          0.593              1.985              6.286
 Vibration     2          0.595              1.979              4.960
 Vibration     3          0.599              1.966              4.057
 Vibration     4          0.607              1.938              3.203
 Vibration     5          0.630              1.864              2.304
 Vibration     6          0.640              1.832              2.080
 Vibration     7          0.661              1.767              1.749
 Vibration     8          0.673              1.732              1.611
 Vibration     9          0.697              1.662              1.383
 Vibration    10          0.735              1.552              1.117
 Vibration    11          0.753              1.505              1.025
 Vibration    12          0.807              1.367              0.804
 Vibration    13          0.810              1.357              0.790
 Vibration    14          0.828              1.314              0.734
 Vibration    15          0.858              1.245              0.652
 Vibration    16          0.901              1.150              0.554
 Vibration    17          0.954              1.040              0.457

 Optimization completed.
    -- Stationary point found.
 Normal termination of Gaussian 16 at Mon Nov  5 02:21:33 2018.
