 Gaussian 16, Revision A.03,
 Gaussian 16:  ES64L-G16RevA.03 25-Dec-2016

 ----------------------------------------------------------------------
 #M062X/6-311++G(2d,2p) opt=ModRedundant freq=noraman SCRF=(Solvent=Wat
 er)
 ----------------------------------------------------------------------

 ----------------------------
 2SO_1_e4_D_PSI.inp_extract_2
 ----------------------------
 Symbolic Z-matrix:
 Charge =  0 Multiplicity = 1

 SCF Done:  E(RM062X) =  -617.495512525     A.U. after   12 cycles
 SCF Done:  E(RM062X) =  -617.497014924     A.U. after   10 cycles
 SCF Done:  E(RM062X) =  -617.497179744     A.U. after   10 cycles
 SCF Done:  E(RM062X) =  -617.497249678     A.U. after   10 cycles
 SCF Done:  E(RM062X) =  -617.497280052     A.U. after   10 cycles
 SCF Done:  E(RM062X) =  -617.497293147     A.U. after    9 cycles
 SCF Done:  E(RM062X) =  -617.497294273     A.U. after    8 cycles
 SCF Done:  E(RM062X) =  -617.497294629     A.U. after    7 cycles
 Optimization completed.
    -- Stationary point found.
 Normal termination of Gaussian 16 at Mon Nov  5 01:31:19 2018.

 ----------------------------------------------------------------------
 #N Geom=AllCheck Guess=TCheck SCRF=Check GenChk RM062X/6-311++G(2d,2p)
  Freq
 ----------------------------------------------------------------------

 Structure from the checkpoint file:  "2SO_1_e4_D_PSI.inp_extract_2.chk"
 ----------------------------
 2SO_1_e4_D_PSI.inp_extract_2
 ----------------------------
 Charge =  0 Multiplicity = 1

                         Standard orientation:
 ---------------------------------------------------------------------
 Center     Atomic      Atomic             Coordinates (Angstroms)
 Number     Number       Type             X           Y           Z
 ---------------------------------------------------------------------
      1          6           0        1.081967    0.195131    0.049420
      2          6           0       -3.815612    0.641403   -0.381578
      3          6           0       -1.180497   -0.608038    0.096980
      4          6           0       -2.434871    1.197573   -0.745977
      5          6           0       -3.657307   -0.720789    0.313282
      6          6           0        2.026600    0.994269    0.931180
      7          6           0        1.738457   -1.133183   -0.329316
      8          6           0        3.907227   -0.238655   -0.144774
      9          8           0        2.976835   -0.915192   -0.979848
     10          6           0        3.388118    1.132757    0.252968
     11          8           0       -0.117322    0.003046    0.789644
     12          6           0       -2.338631   -0.750559    1.080677
     13          8           0       -1.540756    0.128681   -1.048991
     14          1           0        0.864566    0.753577   -0.865096
     15          1           0       -4.431449    0.539995   -1.274183
     16          1           0       -4.315141    1.349833    0.280646
     17          1           0       -0.876957   -1.583019   -0.287281
     18          1           0       -2.471612    1.829469   -1.629428
     19          1           0       -2.020982    1.789498    0.073717
     20          1           0       -3.651028   -1.517427   -0.432084
     21          1           0       -4.495282   -0.914145    0.980065
     22          1           0        1.590139    1.969118    1.148198
     23          1           0        2.137999    0.462107    1.880180
     24          1           0        1.128004   -1.701813   -1.027199
     25          1           0        1.883296   -1.730697    0.580264
     26          1           0        4.095399   -0.844876    0.749793
     27          1           0        4.831359   -0.167031   -0.714216
     28          1           0        4.102419    1.616393    0.919317
     29          1           0        3.299569    1.751179   -0.642623
     30          1           0       -2.298320    0.078268    1.790282
     31          1           0       -2.214741   -1.672165    1.646034
 ---------------------------------------------------------------------

 SCF Done:  E(RM062X) =  -617.497294629     A.U. after    1 cycles

 The electronic state is 1-A.
 Alpha  occ. eigenvalues --  -19.63434 -19.63225 -19.63128 -10.63614 -10.58569
 Alpha  occ. eigenvalues --  -10.58130 -10.58057 -10.57936 -10.53265 -10.53265
 Alpha  occ. eigenvalues --  -10.53224 -10.53221 -10.52940  -1.20170  -1.16697
 Alpha  occ. eigenvalues --   -1.13707  -0.90987  -0.89813  -0.87010  -0.84414
 Alpha  occ. eigenvalues --   -0.75431  -0.74541  -0.72987  -0.70019  -0.65563
 Alpha  occ. eigenvalues --   -0.62465  -0.60736  -0.59311  -0.58128  -0.56687
 Alpha  occ. eigenvalues --   -0.55576  -0.52972  -0.52001  -0.50257  -0.49294
 Alpha  occ. eigenvalues --   -0.47814  -0.46406  -0.45937  -0.45508  -0.44694
 Alpha  occ. eigenvalues --   -0.44500  -0.43424  -0.40639  -0.39970  -0.39325
 Alpha  occ. eigenvalues --   -0.38544  -0.37657  -0.36059  -0.35744  -0.34150
 Alpha  occ. eigenvalues --   -0.32013
 Alpha virt. eigenvalues --   -0.00104   0.00747   0.00899   0.01030   0.02116
 Alpha virt. eigenvalues --    0.02373   0.02551   0.03475   0.03887   0.04217
 Alpha virt. eigenvalues --    0.04409   0.04598   0.05422   0.05927   0.06920

 Mulliken charges:
               1
     1  C   -0.226369
     2  C   -0.524454
     3  C   -0.267787
     4  C   -0.001489
     5  C   -0.196125
     6  C   -0.236533
     7  C   -0.264960
     8  C   -0.149643
     9  O   -0.324037
    10  C   -0.342221
    11  O   -0.243163
    12  C   -0.283638
    13  O   -0.280963
    14  H    0.258672
    15  H    0.160427
    16  H    0.147290
    17  H    0.211403
    18  H    0.206217
    19  H    0.140846
    20  H    0.153618
    21  H    0.195897
    22  H    0.164495
    23  H    0.205610
    24  H    0.236135
    25  H    0.198417
    26  H    0.135099
    27  H    0.208902
    28  H    0.183481
    29  H    0.163393
    30  H    0.198665
    31  H    0.172815
 Sum of Mulliken charges =   0.00000

 Dipole moment (field-independent basis, Debye):
    X=             -1.1207    Y=              0.8733    Z=              1.8601  Tot=              2.3406
 Quadrupole moment (field-independent basis, Debye-Ang):
   XX=            -70.3329   YY=            -77.1704   ZZ=            -85.4520
   XY=              3.0031   XZ=              3.9005   YZ=             -2.6954

  Exact polarizability: 179.040   1.916 156.271   0.815  -2.424 150.393
 Approx polarizability: 147.288   0.681 141.666   0.563  -0.757 142.592

 ******    1 imaginary frequencies (negative Signs) ******

                      1                      2                      3
                      A                      A                      A
 Frequencies --    -33.9329                45.0491                78.4154
 Red. masses --      3.5787                 3.7369                 3.4039
 Frc consts  --      0.0024                 0.0045                 0.0123
 IR Inten    --      0.0656                 1.5628                 1.1482

                      4                      5                      6
                      A                      A                      A
 Frequencies --    131.1421               163.5126               218.8062
 Red. masses --      3.1942                 2.4907                 2.0245
 Frc consts  --      0.0324                 0.0392                 0.0571
 IR Inten    --      1.8661                 3.7884                 6.0742

                      7                      8                      9
                      A                      A                      A
 Frequencies --    240.5284               272.2547               291.9807
 Red. masses --      2.1235                 4.0155                 2.6371
 Frc consts  --      0.0724                 0.1754                 0.1325
 IR Inten    --      4.1218                 1.5368                 5.7615

                     10                     11                     12
                      A                      A                      A
 Frequencies --    361.2271               370.2908               448.5525
 Red. masses --      3.2473                 2.3660                 3.6863
 Frc consts  --      0.2496                 0.1911                 0.4370
 IR Inten    --     18.8654                14.7583                 3.8310

                     13                     14                     15
                      A                      A                      A
 Frequencies --    453.1792               462.0193               503.9080
 Red. masses --      2.1692                 3.7936                 2.8922
 Frc consts  --      0.2625                 0.4771                 0.4327
 IR Inten    --      0.0171                 4.3709                 5.9310

                     16                     17                     18
                      A                      A                      A
 Frequencies --    542.5266               601.8664               634.5305
 Red. masses --      3.4836                 2.7251                 1.9805
 Frc consts  --      0.6041                 0.5816                 0.4698
 IR Inten    --      0.8434                 7.7321                 6.8034

                     19                     20                     21
                      A                      A                      A
 Frequencies --    668.1580               784.1406               831.8344
 Red. masses --      4.0316                 1.2992                 2.1892
 Frc consts  --      1.0604                 0.4707                 0.8925
 IR Inten    --      5.9581                 5.7125                 0.4198

                     22                     23                     24
                      A                      A                      A
 Frequencies --    843.4956               878.7735               892.8280
 Red. masses --      2.6446                 1.3925                 2.5999
 Frc consts  --      1.1086                 0.6336                 1.2211
 IR Inten    --      9.1348                 9.0296                 3.3817

                     25                     26                     27
                      A                      A                      A
 Frequencies --    900.6645               922.9264               943.7517
 Red. masses --      2.4008                 2.1603                 2.3601
 Frc consts  --      1.1475                 1.0842                 1.2385
 IR Inten    --     20.4812                22.4697                19.6847

                     28                     29                     30
                      A                      A                      A
 Frequencies --    971.2171               985.1715               994.3026
 Red. masses --      1.7044                 2.0892                 1.6501
 Frc consts  --      0.9472                 1.1947                 0.9612
 IR Inten    --      4.2002                50.9719                17.6335

                     31                     32                     33
                      A                      A                      A
 Frequencies --   1006.3817              1052.6323              1067.6282
 Red. masses --      1.9603                 1.9057                 2.9930
 Frc consts  --      1.1697                 1.2441                 2.0100
 IR Inten    --      4.7332                21.4784               259.8565

                     34                     35                     36
                      A                      A                      A
 Frequencies --   1074.6058              1083.6224              1114.5358
 Red. masses --      1.9603                 2.1192                 4.5790
 Frc consts  --      1.3337                 1.4661                 3.3513
 IR Inten    --     42.1981                12.0722               345.0430

                     37                     38                     39
                      A                      A                      A
 Frequencies --   1145.1604              1154.8219              1159.7420
 Red. masses --      2.8147                 2.7888                 3.5574
 Frc consts  --      2.1748                 2.1913                 2.8191
 IR Inten    --    131.3867                63.0196                88.4817

                     40                     41                     42
                      A                      A                      A
 Frequencies --   1172.9867              1188.9940              1210.7056
 Red. masses --      2.3504                 2.1350                 1.3959
 Frc consts  --      1.9054                 1.7783                 1.2056
 IR Inten    --     44.2914                15.4603                 4.8089

                     43                     44                     45
                      A                      A                      A
 Frequencies --   1224.9919              1244.9040              1254.7857
 Red. masses --      1.6271                 1.6650                 1.4964
 Frc consts  --      1.4386                 1.5203                 1.3881
 IR Inten    --     22.8409                44.8835                27.8116

                     46                     47                     48
                      A                      A                      A
 Frequencies --   1290.8261              1304.0554              1308.7110
 Red. masses --      1.2037                 1.1773                 1.1633
 Frc consts  --      1.1817                 1.1796                 1.1739
 IR Inten    --      3.2556                13.0693                12.0551

                     49                     50                     51
                      A                      A                      A
 Frequencies --   1328.4816              1331.4393              1345.4327
 Red. masses --      1.2721                 1.1824                 1.3050
 Frc consts  --      1.3228                 1.2349                 1.3918
 IR Inten    --      9.3489                 4.5828                 3.8646

                     52                     53                     54
                      A                      A                      A
 Frequencies --   1358.8935              1367.3088              1372.6527
 Red. masses --      1.3070                 1.4220                 1.3885
 Frc consts  --      1.4220                 1.5663                 1.5414
 IR Inten    --      6.0539                 2.4139                 1.0103

                     55                     56                     57
                      A                      A                      A
 Frequencies --   1384.0787              1401.0267              1402.1306
 Red. masses --      1.4711                 1.2885                 1.4224
 Frc consts  --      1.6604                 1.4901                 1.6476
 IR Inten    --      5.4209                18.3219                 5.5018

                     58                     59                     60
                      A                      A                      A
 Frequencies --   1410.5723              1422.8026              1428.0793
 Red. masses --      1.3799                 1.3948                 1.4865
 Frc consts  --      1.6177                 1.6636                 1.7861
 IR Inten    --      8.7799                12.6287                18.2792

                     61                     62                     63
                      A                      A                      A
 Frequencies --   1432.5166              1480.6449              1487.9022
 Red. masses --      1.4134                 1.0936                 1.0789
 Frc consts  --      1.7088                 1.4126                 1.4073
 IR Inten    --     15.2792                 8.0227                 2.5067

                     64                     65                     66
                      A                      A                      A
 Frequencies --   1494.6594              1496.0709              1501.2656
 Red. masses --      1.0952                 1.1110                 1.0842
 Frc consts  --      1.4416                 1.4651                 1.4397
 IR Inten    --      6.7330                11.6980                 0.8495

                     67                     68                     69
                      A                      A                      A
 Frequencies --   1504.1826              1514.0017              1523.8920
 Red. masses --      1.0985                 1.1008                 1.0866
 Frc consts  --      1.4644                 1.4866                 1.4868
 IR Inten    --      9.9769                 7.8921                 4.0082

                     70                     71                     72
                      A                      A                      A
 Frequencies --   3014.9935              3021.4969              3054.7273
 Red. masses --      1.0698                 1.0704                 1.0687
 Frc consts  --      5.7294                 5.7575                 5.8755
 IR Inten    --     44.4521                83.0182                13.2063

                     73                     74                     75
                      A                      A                      A
 Frequencies --   3062.5952              3067.4810              3071.4238
 Red. masses --      1.0690                 1.0786                 1.0623
 Frc consts  --      5.9077                 5.9799                 5.9046
 IR Inten    --     43.2681                41.4945                53.1927

                     76                     77                     78
                      A                      A                      A
 Frequencies --   3075.2394              3078.7844              3082.1920
 Red. masses --      1.0671                 1.0628                 1.0647
 Frc consts  --      5.9458                 5.9357                 5.9596
 IR Inten    --     16.3358                42.6144                38.0489

                     79                     80                     81
                      A                      A                      A
 Frequencies --   3087.1877              3115.0910              3118.0158
 Red. masses --      1.0833                 1.0982                 1.0989
 Frc consts  --      6.0831                 6.2787                 6.2947
 IR Inten    --     40.5023                40.7350                30.5635

                     82                     83                     84
                      A                      A                      A
 Frequencies --   3120.6864              3131.6949              3133.2078
 Red. masses --      1.1031                 1.1019                 1.0948
 Frc consts  --      6.3292                 6.3673                 6.3323
 IR Inten    --     55.9706                43.5586                47.1835

                     85                     86                     87
                      A                      A                      A
 Frequencies --   3135.4435              3140.1018              3146.3767
 Red. masses --      1.1000                 1.0941                 1.0999
 Frc consts  --      6.3718                 6.3560                 6.4155
 IR Inten    --     47.5626                41.8362                48.0486

 - Thermochemistry -
 -------------------
 Temperature   298.150 Kelvin.  Pressure   1.00000 Atm.
 Atom     1 has atomic number  6 and mass  12.00000

 Molecular mass:   186.12559 amu.
 Principal axes and moments of inertia in atomic units:
                           1         2         3
     Eigenvalues --   827.372344871.475884983.52373
           X            0.99998   0.00543   0.00320
           Y           -0.00517   0.99702  -0.07703
           Z           -0.00361   0.07702   0.99702
 This molecule is an asymmetric top.
 Rotational symmetry number  1.
 Warning -- assumption of classical behavior for rotation
           may cause significant error
 Rotational temperatures (Kelvin)      0.10469     0.01778     0.01738
 Rotational constants (GHZ):           2.18129     0.37047     0.36214
    1 imaginary frequencies ignored.
 Zero-point vibrational energy     736552.2 (Joules/Mol)
                                  176.04021 (Kcal/Mol)
 Warning -- explicit consideration of  16 degrees of freedom as
           vibrations may cause significant error
 Vibrational temperatures:     64.82   112.82   188.68   235.26   314.81
          (Kelvin)            346.07   391.71   420.10   519.73   532.77
                              645.37   652.02   664.74   725.01   780.57
                              865.95   912.95   961.33  1128.20  1196.82
                             1213.60  1264.36  1284.58  1295.86  1327.89
                             1357.85  1397.36  1417.44  1430.58  1447.96
                             1514.50  1536.08  1546.12  1559.09  1603.57
                             1647.63  1661.53  1668.61  1687.67  1710.70
                             1741.94  1762.49  1791.14  1805.36  1857.21
                             1876.24  1882.94  1911.39  1915.64  1935.78
                             1955.14  1967.25  1974.94  1991.38  2015.76
                             2017.35  2029.50  2047.10  2054.69  2061.07
                             2130.32  2140.76  2150.48  2152.51  2159.99
                             2164.18  2178.31  2192.54  4337.90  4347.26
                             4395.07  4406.39  4413.42  4419.09  4424.58
                             4429.68  4434.59  4441.77  4481.92  4486.13
                             4489.97  4505.81  4507.99  4511.20  4517.91
                             4526.93

 Zero-point correction=                           0.280538 (Hartree/Particle)
 Thermal correction to Energy=                    0.291624
 Thermal correction to Enthalpy=                  0.292568
 Thermal correction to Gibbs Free Energy=         0.243207
 Sum of electronic and zero-point Energies=           -617.216757
 Sum of electronic and thermal Energies=              -617.205671
 Sum of electronic and thermal Enthalpies=            -617.204727
 Sum of electronic and thermal Free Energies=         -617.254087

                     E (Thermal)             CV                S
                      KCal/Mol        Cal/Mol-Kelvin    Cal/Mol-Kelvin
 Total                  182.997             44.888            103.888
 Electronic               0.000              0.000              0.000
 Translational            0.889              2.981             41.570
 Rotational               0.889              2.981             31.374
 Vibrational            181.219             38.926             30.944
 Vibration     1          0.595              1.979              5.024
 Vibration     2          0.600              1.964              3.930
 Vibration     3          0.612              1.922              2.929
 Vibration     4          0.623              1.887              2.509
 Vibration     5          0.647              1.812              1.969
 Vibration     6          0.658              1.778              1.799
 Vibration     7          0.675              1.724              1.582
 Vibration     8          0.687              1.689              1.462
 Vibration     9          0.735              1.552              1.117
 Vibration    10          0.742              1.533              1.079
 Vibration    11          0.808              1.364              0.800
 Vibration    12          0.812              1.354              0.786
 Vibration    13          0.820              1.334              0.760
 Vibration    14          0.859              1.241              0.648
 Vibration    15          0.898              1.156              0.560
 Vibration    16          0.960              1.028              0.446

                           ! Non-Optimized Parameters !
 Normal termination of Gaussian 16 at Mon Nov  5 02:25:03 2018.
