 Gaussian 16, Revision A.03,
 Gaussian 16:  ES64L-G16RevA.03 25-Dec-2016

 ----------------------------------------------------------------------
 #M062X/6-311++G(2d,2p) opt=ModRedundant freq=noraman SCRF=(Solvent=Wat
 er)
 ----------------------------------------------------------------------

 ----------------------------
 L_a1-e4_D_PSI.inp_extract_17
 ----------------------------
 Symbolic Z-matrix:
 Charge =  0 Multiplicity = 1

 SCF Done:  E(RM062X) =  -617.499734197     A.U. after   12 cycles
 SCF Done:  E(RM062X) =  -617.501431162     A.U. after   11 cycles
 SCF Done:  E(RM062X) =  -617.501792677     A.U. after   10 cycles
 SCF Done:  E(RM062X) =  -617.501891104     A.U. after    9 cycles
 SCF Done:  E(RM062X) =  -617.501895138     A.U. after    8 cycles
 Optimization completed.
    -- Stationary point found.
 Normal termination of Gaussian 16 at Sun Nov  4 21:51:32 2018.

 ----------------------------------------------------------------------
 #N Geom=AllCheck Guess=TCheck SCRF=Check GenChk RM062X/6-311++G(2d,2p)
  Freq
 ----------------------------------------------------------------------

 Structure from the checkpoint file:  "L_a1-e4_D_PSI.inp_extract_17.chk"
 ----------------------------
 L_a1-e4_D_PSI.inp_extract_17
 ----------------------------
 Charge =  0 Multiplicity = 1

                         Standard orientation:
 ---------------------------------------------------------------------
 Center     Atomic      Atomic             Coordinates (Angstroms)
 Number     Number       Type             X           Y           Z
 ---------------------------------------------------------------------
      1          6           0        1.972735    1.133761   -0.986403
      2          8           0        1.447392    1.248601    0.335653
      3          6           0        3.171990   -0.951128   -0.326544
      4          8           0       -3.199923   -1.081277   -0.495049
      5          6           0        1.250064    0.005817    0.972454
      6          6           0        2.548985   -0.781079    1.058463
      7          6           0       -2.959793    1.099022    0.545872
      8          8           0        0.314884   -0.792263    0.292145
      9          6           0       -1.435247    0.985555    0.478142
     10          6           0       -3.600365    0.281643   -0.563716
     11          6           0       -1.062081   -0.492271    0.488370
     12          6           0       -1.799773   -1.220571   -0.626672
     13          6           0        3.313330    0.417379   -0.991366
     14          1           0        1.253973    0.600535   -1.615498
     15          1           0        2.061987    2.153176   -1.355351
     16          1           0        2.532461   -1.589766   -0.939036
     17          1           0        4.140162   -1.443990   -0.244930
     18          1           0        0.874954    0.254564    1.967903
     19          1           0        3.230208   -0.223330    1.703638
     20          1           0        2.349013   -1.741800    1.530890
     21          1           0       -3.267621    2.140734    0.454939
     22          1           0       -3.320572    0.731799    1.509178
     23          1           0       -1.068233    1.438216   -0.446440
     24          1           0       -0.970828    1.515708    1.307642
     25          1           0       -4.685428    0.284792   -0.486564
     26          1           0       -3.319645    0.690422   -1.542154
     27          1           0       -1.376267   -0.920589    1.449035
     28          1           0       -1.576196   -2.285150   -0.594761
     29          1           0       -1.464621   -0.818355   -1.591484
     30          1           0        3.668308    0.322949   -2.018075
     31          1           0        4.040449    1.020840   -0.442526
 ---------------------------------------------------------------------

 SCF Done:  E(RM062X) =  -617.501895138     A.U. after    1 cycles

 The electronic state is 1-A.
 Alpha  occ. eigenvalues --  -19.63295 -19.63180 -19.62721 -10.63523 -10.58857
 Alpha  occ. eigenvalues --  -10.58120 -10.58053 -10.57675 -10.53251 -10.53121
 Alpha  occ. eigenvalues --  -10.53005 -10.52953 -10.52821  -1.19963  -1.16726
 Alpha  occ. eigenvalues --   -1.13437  -0.91025  -0.89584  -0.87514  -0.84411
 Alpha  occ. eigenvalues --   -0.75043  -0.73872  -0.72511  -0.70921  -0.66308
 Alpha  occ. eigenvalues --   -0.63192  -0.60312  -0.58691  -0.57080  -0.55188
 Alpha  occ. eigenvalues --   -0.54445  -0.53448  -0.52215  -0.50264  -0.49886
 Alpha  occ. eigenvalues --   -0.48551  -0.47454  -0.46260  -0.45292  -0.43937
 Alpha  occ. eigenvalues --   -0.43831  -0.43497  -0.40896  -0.40026  -0.39757
 Alpha  occ. eigenvalues --   -0.38304  -0.37559  -0.36366  -0.34288  -0.33573
 Alpha  occ. eigenvalues --   -0.32204
 Alpha virt. eigenvalues --   -0.00054   0.00786   0.00795   0.01012   0.02222
 Alpha virt. eigenvalues --    0.02507   0.02667   0.03367   0.03431   0.04469
 Alpha virt. eigenvalues --    0.04791   0.04836   0.05597   0.05928   0.07140

 Mulliken charges:
               1
     1  C   -0.065593
     2  O   -0.242622
     3  C   -0.265369
     4  O   -0.346606
     5  C    0.034816
     6  C   -0.561152
     7  C   -0.466217
     8  O   -0.289091
     9  C   -0.210463
    10  C   -0.214388
    11  C   -0.158491
    12  C   -0.163582
    13  C   -0.447967
    14  H    0.140540
    15  H    0.202030
    16  H    0.172000
    17  H    0.184608
    18  H    0.235081
    19  H    0.197257
    20  H    0.185106
    21  H    0.168125
    22  H    0.171386
    23  H    0.218834
    24  H    0.203816
    25  H    0.209017
    26  H    0.139906
    27  H    0.252176
    28  H    0.198761
    29  H    0.184081
    30  H    0.171406
    31  H    0.162597
 Sum of Mulliken charges =   0.00000

 Dipole moment (field-independent basis, Debye):
    X=              1.2016    Y=              1.3066    Z=             -0.0529  Tot=              1.7759
 Quadrupole moment (field-independent basis, Debye-Ang):
   XX=            -78.9349   YY=            -84.0803   ZZ=            -76.6047
   XY=             -8.3625   XZ=             -1.9955   YZ=             -2.7406

  Exact polarizability: 174.026  -2.893 156.299  -2.036  -1.789 155.400
 Approx polarizability: 146.273   0.033 143.231  -1.822  -0.766 143.017

                      1                      2                      3
                      A                      A                      A
 Frequencies --     40.7858                53.1626               103.4974
 Red. masses --      3.6909                 3.6475                 3.6593
 Frc consts  --      0.0036                 0.0061                 0.0231
 IR Inten    --      0.6860                 1.3841                 3.2265

                      4                      5                      6
                      A                      A                      A
 Frequencies --    147.3693               193.5084               230.4947
 Red. masses --      3.0499                 3.2334                 2.9028
 Frc consts  --      0.0390                 0.0713                 0.0909
 IR Inten    --      1.4077                 1.5570                 7.5770

                      7                      8                      9
                      A                      A                      A
 Frequencies --    258.4805               277.2836               345.0998
 Red. masses --      1.9917                 3.1174                 2.7938
 Frc consts  --      0.0784                 0.1412                 0.1960
 IR Inten    --      4.7463                 1.3543                10.3265

                     10                     11                     12
                      A                      A                      A
 Frequencies --    359.4800               385.4031               435.7161
 Red. masses --      2.0475                 2.5015                 3.4596
 Frc consts  --      0.1559                 0.2189                 0.3870
 IR Inten    --      2.5235                18.2263                 3.7459

                     13                     14                     15
                      A                      A                      A
 Frequencies --    453.7624               462.3077               478.0096
 Red. masses --      3.3579                 3.2400                 2.2723
 Frc consts  --      0.4074                 0.4080                 0.3059
 IR Inten    --      5.5256                 3.0217                 1.0647

                     16                     17                     18
                      A                      A                      A
 Frequencies --    534.3556               573.1130               630.0752
 Red. masses --      2.0813                 2.3042                 3.8559
 Frc consts  --      0.3501                 0.4459                 0.9019
 IR Inten    --      4.7387                17.6552                10.0910

                     19                     20                     21
                      A                      A                      A
 Frequencies --    714.3595               825.1596               835.7320
 Red. masses --      2.7857                 2.0475                 1.5989
 Frc consts  --      0.8376                 0.8214                 0.6580
 IR Inten    --      5.0333                 0.6955                 1.0314

                     22                     23                     24
                      A                      A                      A
 Frequencies --    842.9483               878.3542               891.7442
 Red. masses --      3.3854                 1.3862                 2.3437
 Frc consts  --      1.4173                 0.6301                 1.0981
 IR Inten    --      8.1521                11.9756                23.6353

                     25                     26                     27
                      A                      A                      A
 Frequencies --    896.8604               909.0347               930.6620
 Red. masses --      2.4677                 2.4819                 1.6437
 Frc consts  --      1.1695                 1.2084                 0.8388
 IR Inten    --      9.8981                18.6711                25.7508

                     28                     29                     30
                      A                      A                      A
 Frequencies --    945.6824               982.1423               997.8672
 Red. masses --      2.1894                 2.3018                 1.5060
 Frc consts  --      1.1536                 1.3082                 0.8835
 IR Inten    --     33.0014                17.3001                 8.5395

                     31                     32                     33
                      A                      A                      A
 Frequencies --   1025.4005              1041.9471              1059.9290
 Red. masses --      2.1914                 2.3038                 1.7154
 Frc consts  --      1.3576                 1.4736                 1.1355
 IR Inten    --     81.6421                70.3972                32.8108

                     34                     35                     36
                      A                      A                      A
 Frequencies --   1064.5008              1074.3634              1123.8496
 Red. masses --      1.5208                 2.3114                 4.6291
 Frc consts  --      1.0153                 1.5719                 3.4448
 IR Inten    --     49.9501                26.8311               258.6129

                     37                     38                     39
                      A                      A                      A
 Frequencies --   1144.2410              1155.1414              1174.4262
 Red. masses --      2.2266                 2.9386                 3.4011
 Frc consts  --      1.7176                 2.3103                 2.7639
 IR Inten    --      3.0435               121.2139               157.9408

                     40                     41                     42
                      A                      A                      A
 Frequencies --   1178.7785              1185.5989              1210.7142
 Red. masses --      2.6724                 2.4683                 1.4681
 Frc consts  --      2.1879                 2.0442                 1.2679
 IR Inten    --     96.4416                27.3178                47.4307

                     43                     44                     45
                      A                      A                      A
 Frequencies --   1213.2826              1233.2699              1249.0223
 Red. masses --      1.5187                 1.6484                 1.4547
 Frc consts  --      1.3172                 1.4772                 1.3371
 IR Inten    --     53.6432                53.0627                15.1969

                     46                     47                     48
                      A                      A                      A
 Frequencies --   1287.6167              1301.3090              1319.1578
 Red. masses --      1.2163                 1.1693                 1.1526
 Frc consts  --      1.1881                 1.1666                 1.1818
 IR Inten    --     14.4517                 9.9865                 9.3453

                     49                     50                     51
                      A                      A                      A
 Frequencies --   1329.3962              1345.2831              1351.6021
 Red. masses --      1.2721                 1.1943                 1.2709
 Frc consts  --      1.3246                 1.2734                 1.3679
 IR Inten    --      6.3399                 5.2450                15.4147

                     52                     53                     54
                      A                      A                      A
 Frequencies --   1360.8525              1381.3474              1385.6392
 Red. masses --      1.3390                 1.4198                 1.4726
 Frc consts  --      1.4610                 1.5962                 1.6659
 IR Inten    --      6.5076                10.1020                 0.4208

                     55                     56                     57
                      A                      A                      A
 Frequencies --   1388.6383              1396.7924              1406.8008
 Red. masses --      1.5924                 1.2902                 1.4019
 Frc consts  --      1.8092                 1.4831                 1.6347
 IR Inten    --      3.7645                18.1337                 6.7053

                     58                     59                     60
                      A                      A                      A
 Frequencies --   1410.7902              1417.2397              1431.1674
 Red. masses --      1.4929                 1.3895                 1.4292
 Frc consts  --      1.7507                 1.6444                 1.7247
 IR Inten    --     28.8906                11.3306                14.7026

                     61                     62                     63
                      A                      A                      A
 Frequencies --   1436.1996              1475.6708              1480.5410
 Red. masses --      1.4290                 1.1050                 1.0963
 Frc consts  --      1.7367                 1.4177                 1.4159
 IR Inten    --      8.1296                 5.2371                 7.1803

                     64                     65                     66
                      A                      A                      A
 Frequencies --   1482.9974              1489.7928              1496.5033
 Red. masses --      1.0867                 1.1218                 1.1069
 Frc consts  --      1.4081                 1.4670                 1.4605
 IR Inten    --      7.3558                11.3996                13.8513

                     67                     68                     69
                      A                      A                      A
 Frequencies --   1500.5253              1508.3087              1513.2093
 Red. masses --      1.0852                 1.0940                 1.1015
 Frc consts  --      1.4397                 1.4664                 1.4860
 IR Inten    --      0.5664                 3.2629                 8.6093

                     70                     71                     72
                      A                      A                      A
 Frequencies --   3006.4891              3018.9329              3019.6349
 Red. masses --      1.0788                 1.0719                 1.0714
 Frc consts  --      5.7455                 5.7558                 5.7561
 IR Inten    --     20.6829                37.5048               154.7673

                     73                     74                     75
                      A                      A                      A
 Frequencies --   3052.2423              3062.8788              3066.2847
 Red. masses --      1.0690                 1.0631                 1.0663
 Frc consts  --      5.8679                 5.8758                 5.9069
 IR Inten    --     50.2133                39.1400                11.0186

                     76                     77                     78
                      A                      A                      A
 Frequencies --   3069.2715              3071.3574              3072.2736
 Red. masses --      1.0745                 1.0626                 1.0672
 Frc consts  --      5.9640                 5.9056                 5.9351
 IR Inten    --     52.4973                49.0930                11.7748

                     79                     80                     81
                      A                      A                      A
 Frequencies --   3082.3546              3113.3467              3118.4176
 Red. masses --      1.0692                 1.0979                 1.1002
 Frc consts  --      5.9850                 6.2699                 6.3037
 IR Inten    --     65.6930                39.3707                47.6509

                     82                     83                     84
                      A                      A                      A
 Frequencies --   3119.1990              3131.5479              3131.8855
 Red. masses --      1.1022                 1.1028                 1.0985
 Frc consts  --      6.3180                 6.3719                 6.3482
 IR Inten    --     61.2543                32.6305                49.3924

                     85                     86                     87
                      A                      A                      A
 Frequencies --   3132.1573              3133.9871              3134.9648
 Red. masses --      1.0941                 1.0980                 1.0966
 Frc consts  --      6.3241                 6.3543                 6.3498
 IR Inten    --     49.9739                53.9921                28.8441

 - Thermochemistry -
 -------------------
 Temperature   298.150 Kelvin.  Pressure   1.00000 Atm.
 Atom     1 has atomic number  6 and mass  12.00000

 Molecular mass:   186.12559 amu.
 Principal axes and moments of inertia in atomic units:
                           1         2         3
     Eigenvalues --   975.805204207.627874431.78487
           X            0.99987  -0.01556  -0.00487
           Y            0.01539   0.99934  -0.03298
           Z            0.00538   0.03290   0.99944
 This molecule is an asymmetric top.
 Rotational symmetry number  1.
 Warning -- assumption of classical behavior for rotation
           may cause significant error
 Rotational temperatures (Kelvin)      0.08876     0.02058     0.01954
 Rotational constants (GHZ):           1.84949     0.42892     0.40723
 Zero-point vibrational energy     736789.1 (Joules/Mol)
                                  176.09683 (Kcal/Mol)
 Warning -- explicit consideration of  17 degrees of freedom as
           vibrations may cause significant error
 Vibrational temperatures:     58.68    76.49   148.91   212.03   278.42
          (Kelvin)            331.63   371.90   398.95   496.52   517.21
                              554.51   626.90   652.86   665.16   687.75
                              768.82   824.58   906.54  1027.80  1187.22
                             1202.43  1212.81  1263.76  1283.02  1290.38
                             1307.90  1339.02  1360.63  1413.08  1435.71
                             1475.32  1499.13  1525.00  1531.58  1545.77
                             1616.97  1646.31  1661.99  1689.74  1696.00
                             1705.81  1741.95  1745.64  1774.40  1797.06
                             1852.59  1872.29  1897.97  1912.70  1935.56
                             1944.65  1957.96  1987.45  1993.63  1997.94
                             2009.67  2024.07  2029.81  2039.09  2059.13
                             2066.37  2123.16  2130.17  2133.70  2143.48
                             2153.13  2158.92  2170.12  2177.17  4325.67
                             4343.57  4344.58  4391.50  4406.80  4411.70
                             4416.00  4419.00  4420.32  4434.82  4479.41
                             4486.71  4487.83  4505.60  4506.08  4506.48
                             4509.11  4510.52

 Zero-point correction=                           0.280628 (Hartree/Particle)
 Thermal correction to Energy=                    0.292331
 Thermal correction to Enthalpy=                  0.293275
 Thermal correction to Gibbs Free Energy=         0.242369
 Sum of electronic and zero-point Energies=           -617.221267
 Sum of electronic and thermal Energies=              -617.209564
 Sum of electronic and thermal Enthalpies=            -617.208620
 Sum of electronic and thermal Free Energies=         -617.259526

                     E (Thermal)             CV                S
                      KCal/Mol        Cal/Mol-Kelvin    Cal/Mol-Kelvin
 Total                  183.440             46.691            107.140
 Electronic               0.000              0.000              0.000
 Translational            0.889              2.981             41.570
 Rotational               0.889              2.981             31.276
 Vibrational            181.663             40.730             34.294
 Vibration     1          0.594              1.981              5.221
 Vibration     2          0.596              1.976              4.696
 Vibration     3          0.605              1.946              3.387
 Vibration     4          0.617              1.906              2.706
 Vibration     5          0.635              1.849              2.194
 Vibration     6          0.652              1.794              1.875
 Vibration     7          0.667              1.748              1.672
 Vibration     8          0.678              1.715              1.550
 Vibration     9          0.723              1.585              1.188
 Vibration    10          0.734              1.556              1.124
 Vibration    11          0.754              1.501              1.018
 Vibration    12          0.796              1.392              0.840
 Vibration    13          0.812              1.353              0.784
 Vibration    14          0.820              1.334              0.759
 Vibration    15          0.835              1.299              0.715
 Vibration    16          0.889              1.174              0.578
 Vibration    17          0.929              1.089              0.498

                           ! Non-Optimized Parameters !
 Normal termination of Gaussian 16 at Sun Nov  4 22:45:06 2018.
