 Gaussian 16, Revision A.03,
 Gaussian 16:  ES64L-G16RevA.03 25-Dec-2016

 ----------------------------------------------------------------------
 #M062X/6-311++G(2d,2p) opt=ModRedundant freq=noraman SCRF=(Solvent=Wat
 er)
 ----------------------------------------------------------------------

 ---------------------------
 L_a1-e4_D_PSI.inp_extract_0
 ---------------------------
 Symbolic Z-matrix:
 Charge =  0 Multiplicity = 1

 SCF Done:  E(RM062X) =  -617.502814229     A.U. after   12 cycles
 SCF Done:  E(RM062X) =  -617.504469253     A.U. after   11 cycles
 SCF Done:  E(RM062X) =  -617.504619497     A.U. after   10 cycles
 SCF Done:  E(RM062X) =  -617.504645753     A.U. after   10 cycles
 SCF Done:  E(RM062X) =  -617.504648866     A.U. after    8 cycles
 SCF Done:  E(RM062X) =  -617.504649317     A.U. after    7 cycles
 Optimization completed.
    -- Stationary point found.
 Normal termination of Gaussian 16 at Sun Nov  4 21:55:05 2018.

 ----------------------------------------------------------------------
 #N Geom=AllCheck Guess=TCheck SCRF=Check GenChk RM062X/6-311++G(2d,2p)
  Freq
 ----------------------------------------------------------------------

 Structure from the checkpoint file:  "L_a1-e4_D_PSI.inp_extract_0.chk"
 ---------------------------
 L_a1-e4_D_PSI.inp_extract_0
 ---------------------------
 Charge =  0 Multiplicity = 1

                         Standard orientation:
 ---------------------------------------------------------------------
 Center     Atomic      Atomic             Coordinates (Angstroms)
 Number     Number       Type             X           Y           Z
 ---------------------------------------------------------------------
      1          6           0       -2.280744    1.300761   -0.659683
      2          8           0       -1.628984    0.214901   -1.321681
      3          6           0       -3.151335   -0.268894    1.069564
      4          8           0        3.179729   -0.926421   -0.594290
      5          6           0       -1.233702   -0.822305   -0.451635
      6          6           0       -2.408229   -1.382327    0.332786
      7          6           0        3.020026    1.368124    0.193014
      8          8           0       -0.273268   -0.372900    0.474301
      9          6           0        1.601277    1.103131    0.697818
     10          6           0        3.822739    0.076595    0.182737
     11          6           0        0.980716   -0.028437   -0.101659
     12          6           0        1.901581   -1.244864   -0.076369
     13          6           0       -3.522885    0.834450    0.080345
     14          1           0       -1.580977    1.772886    0.035409
     15          1           0       -2.523949    2.015768   -1.442273
     16          1           0       -2.510725    0.143721    1.851303
     17          1           0       -4.040141   -0.669803    1.555431
     18          1           0       -0.798274   -1.578554   -1.108603
     19          1           0       -3.079241   -1.865474   -0.379579
     20          1           0       -2.041539   -2.144818    1.018701
     21          1           0        3.521767    2.103918    0.821508
     22          1           0        2.984675    1.770072   -0.821782
     23          1           0        1.630716    0.803693    1.749480
     24          1           0        0.980293    1.995889    0.624485
     25          1           0        4.805185    0.222828   -0.260771
     26          1           0        3.954657   -0.292644    1.207116
     27          1           0        0.836445    0.294393   -1.136337
     28          1           0        1.502049   -2.053284   -0.686688
     29          1           0        1.988385   -1.598007    0.958945
     30          1           0       -3.979032    1.683844    0.589649
     31          1           0       -4.246773    0.453525   -0.644141
 ---------------------------------------------------------------------

 SCF Done:  E(RM062X) =  -617.504649317     A.U. after    1 cycles

 The electronic state is 1-A.
 Alpha  occ. eigenvalues --  -19.63398 -19.63182 -19.63010 -10.63601 -10.58605
 Alpha  occ. eigenvalues --  -10.58086 -10.58031 -10.57773 -10.53322 -10.53266
 Alpha  occ. eigenvalues --  -10.53124 -10.53022 -10.52883  -1.20207  -1.16662
 Alpha  occ. eigenvalues --   -1.13483  -0.91148  -0.89810  -0.87157  -0.84552
 Alpha  occ. eigenvalues --   -0.74651  -0.74094  -0.72971  -0.70879  -0.65738
 Alpha  occ. eigenvalues --   -0.64206  -0.59917  -0.58687  -0.57472  -0.56253
 Alpha  occ. eigenvalues --   -0.53899  -0.53282  -0.52024  -0.51212  -0.49585
 Alpha  occ. eigenvalues --   -0.47964  -0.46989  -0.46087  -0.45551  -0.45341
 Alpha  occ. eigenvalues --   -0.44124  -0.42669  -0.40651  -0.40273  -0.38988
 Alpha  occ. eigenvalues --   -0.38510  -0.38268  -0.36367  -0.35858  -0.33422
 Alpha  occ. eigenvalues --   -0.31865
 Alpha virt. eigenvalues --   -0.00058   0.00762   0.00914   0.01010   0.02161
 Alpha virt. eigenvalues --    0.02472   0.02625   0.03358   0.03670   0.04357
 Alpha virt. eigenvalues --    0.04664   0.04768   0.05421   0.06052   0.06963

 Mulliken charges:
               1
     1  C   -0.130382
     2  O   -0.273303
     3  C   -0.316656
     4  O   -0.323322
     5  C   -0.080419
     6  C   -0.364210
     7  C   -0.358948
     8  O   -0.260525
     9  C   -0.182797
    10  C   -0.175714
    11  C   -0.291903
    12  C   -0.241266
    13  C   -0.355118
    14  H    0.118975
    15  H    0.203801
    16  H    0.180283
    17  H    0.182316
    18  H    0.251442
    19  H    0.188047
    20  H    0.178669
    21  H    0.186379
    22  H    0.162708
    23  H    0.207689
    24  H    0.139288
    25  H    0.207596
    26  H    0.138164
    27  H    0.293039
    28  H    0.190785
    29  H    0.190806
    30  H    0.168892
    31  H    0.165682
 Sum of Mulliken charges =  -0.00000

 Dipole moment (field-independent basis, Debye):
    X=             -0.9517    Y=              1.2526    Z=              1.8421  Tot=              2.4224
 Quadrupole moment (field-independent basis, Debye-Ang):
   XX=            -75.7070   YY=            -76.4404   ZZ=            -84.7972
   XY=              5.0378   XZ=              3.0287   YZ=             -0.3280

  Exact polarizability: 174.680   1.562 160.349  -0.274  -0.524 149.983
 Approx polarizability: 146.190   1.119 142.879   0.516   0.517 142.829

                      1                      2                      3
                      A                      A                      A
 Frequencies --     33.1248                55.0937                83.9351
 Red. masses --      3.6218                 3.9246                 3.4225
 Frc consts  --      0.0023                 0.0070                 0.0142
 IR Inten    --      0.3226                 0.9996                 0.5121

                      4                      5                      6
                      A                      A                      A
 Frequencies --    141.5907               179.9683               235.1717
 Red. masses --      3.8044                 2.7601                 2.7449
 Frc consts  --      0.0449                 0.0527                 0.0894
 IR Inten    --      4.7690                 0.0728                 8.3146

                      7                      8                      9
                      A                      A                      A
 Frequencies --    252.2660               288.5822               342.4979
 Red. masses --      2.1825                 2.2289                 2.6246
 Frc consts  --      0.0818                 0.1094                 0.1814
 IR Inten    --      2.3555                 3.2057                 8.8921

                     10                     11                     12
                      A                      A                      A
 Frequencies --    375.3110               389.0494               435.5156
 Red. masses --      2.5121                 2.7063                 3.2578
 Frc consts  --      0.2085                 0.2413                 0.3641
 IR Inten    --     29.2883                 4.6058                 8.8878

                     13                     14                     15
                      A                      A                      A
 Frequencies --    451.9170               469.9417               477.9239
 Red. masses --      3.6821                 3.5353                 2.1997
 Frc consts  --      0.4431                 0.4600                 0.2960
 IR Inten    --      2.4241                 0.5220                 0.5979

                     16                     17                     18
                      A                      A                      A
 Frequencies --    533.7900               580.3551               606.1018
 Red. masses --      2.2593                 2.6032                 2.4924
 Frc consts  --      0.3793                 0.5166                 0.5395
 IR Inten    --      2.5327                 9.4826                 7.7687

                     19                     20                     21
                      A                      A                      A
 Frequencies --    725.1609               833.4682               834.4613
 Red. masses --      3.0133                 2.1403                 1.6352
 Frc consts  --      0.9336                 0.8760                 0.6709
 IR Inten    --      2.1614                 0.3146                 3.8461

                     22                     23                     24
                      A                      A                      A
 Frequencies --    841.9637               878.7833               892.3875
 Red. masses --      3.0361                 1.4104                 2.2997
 Frc consts  --      1.2681                 0.6418                 1.0790
 IR Inten    --     10.0598                11.2094                13.4260

                     25                     26                     27
                      A                      A                      A
 Frequencies --    899.5227               907.1955               931.6235
 Red. masses --      2.3724                 2.4576                 1.6446
 Frc consts  --      1.1310                 1.1917                 0.8410
 IR Inten    --     21.1260                12.9582                24.1948

                     28                     29                     30
                      A                      A                      A
 Frequencies --    943.7177               987.4065               994.5866
 Red. masses --      2.2442                 2.4006                 1.3820
 Frc consts  --      1.1776                 1.3790                 0.8055
 IR Inten    --     44.3867                64.0944                 6.4311

                     31                     32                     33
                      A                      A                      A
 Frequencies --   1027.6309              1045.5409              1055.3576
 Red. masses --      2.2442                 2.3102                 1.7447
 Frc consts  --      1.3963                 1.4879                 1.1449
 IR Inten    --     37.5200                89.3441                52.4723

                     34                     35                     36
                      A                      A                      A
 Frequencies --   1063.9305              1071.9967              1114.2780
 Red. masses --      1.5041                 2.2973                 4.2898
 Frc consts  --      1.0031                 1.5554                 3.1381
 IR Inten    --     52.5930                16.8485               290.8318

                     37                     38                     39
                      A                      A                      A
 Frequencies --   1149.2880              1153.3044              1166.0270
 Red. masses --      3.0291                 2.5800                 2.4399
 Frc consts  --      2.3573                 2.0219                 1.9545
 IR Inten    --    125.5079                26.0937                25.6741

                     40                     41                     42
                      A                      A                      A
 Frequencies --   1167.9135              1193.4334              1209.7780
 Red. masses --      3.6707                 2.1421                 1.4298
 Frc consts  --      2.9500                 1.7976                 1.2329
 IR Inten    --    157.4141                41.4070                 8.0471

                     43                     44                     45
                      A                      A                      A
 Frequencies --   1221.5894              1234.0041              1252.5510
 Red. masses --      1.6467                 1.6281                 1.4711
 Frc consts  --      1.4478                 1.4607                 1.3598
 IR Inten    --     31.2442                63.1952                22.1672

                     46                     47                     48
                      A                      A                      A
 Frequencies --   1289.8057              1304.5746              1320.3434
 Red. masses --      1.2213                 1.1823                 1.1508
 Frc consts  --      1.1970                 1.1855                 1.1820
 IR Inten    --     16.8994                19.2911                 6.8159

                     49                     50                     51
                      A                      A                      A
 Frequencies --   1330.0681              1345.7914              1348.0858
 Red. masses --      1.2847                 1.2458                 1.2571
 Frc consts  --      1.3391                 1.3294                 1.3460
 IR Inten    --      7.3869                 8.8108                13.9653

                     52                     53                     54
                      A                      A                      A
 Frequencies --   1360.6042              1383.4407              1386.5425
 Red. masses --      1.3313                 1.4495                 1.4602
 Frc consts  --      1.4521                 1.6346                 1.6539
 IR Inten    --      3.0813                 2.5975                 1.8931

                     55                     56                     57
                      A                      A                      A
 Frequencies --   1392.9203              1398.9775              1403.5642
 Red. masses --      1.7070                 1.4241                 1.2801
 Frc consts  --      1.9514                 1.6422                 1.4857
 IR Inten    --     15.9980                13.4567                 1.9708

                     58                     59                     60
                      A                      A                      A
 Frequencies --   1406.1961              1422.9000              1432.7160
 Red. masses --      1.3878                 1.4792                 1.4202
 Frc consts  --      1.6168                 1.7645                 1.7176
 IR Inten    --     29.8015                 7.7031                17.2889

                     61                     62                     63
                      A                      A                      A
 Frequencies --   1439.0335              1476.7868              1481.2387
 Red. masses --      1.3494                 1.1057                 1.0917
 Frc consts  --      1.6463                 1.4208                 1.4112
 IR Inten    --      2.1909                 5.3228                 7.7105

                     64                     65                     66
                      A                      A                      A
 Frequencies --   1482.7675              1495.0123              1495.9873
 Red. masses --      1.0855                 1.1115                 1.1087
 Frc consts  --      1.4061                 1.4637                 1.4619
 IR Inten    --      8.4087                10.3637                13.6865

                     67                     68                     69
                      A                      A                      A
 Frequencies --   1501.6248              1509.5923              1514.9774
 Red. masses --      1.0884                 1.0940                 1.1022
 Frc consts  --      1.4459                 1.4689                 1.4905
 IR Inten    --      0.4012                 4.0085                10.0776

                     70                     71                     72
                      A                      A                      A
 Frequencies --   3018.8474              3022.5307              3055.3890
 Red. masses --      1.0687                 1.0704                 1.0679
 Frc consts  --      5.7383                 5.7613                 5.8739
 IR Inten    --     39.4018                92.0049                16.9028

                     73                     74                     75
                      A                      A                      A
 Frequencies --   3056.2901              3063.8810              3068.8065
 Red. masses --      1.0689                 1.0625                 1.0778
 Frc consts  --      5.8829                 5.8765                 5.9805
 IR Inten    --     43.9196                47.8202                 3.0479

                     76                     77                     78
                      A                      A                      A
 Frequencies --   3070.8349              3072.6229              3074.6521
 Red. masses --      1.0647                 1.0730                 1.0664
 Frc consts  --      5.9153                 5.9688                 5.9398
 IR Inten    --     24.2332                86.0657                 9.0908

                     79                     80                     81
                      A                      A                      A
 Frequencies --   3083.2305              3113.7349              3115.7675
 Red. masses --      1.0714                 1.0980                 1.0980
 Frc consts  --      6.0010                 6.2724                 6.2801
 IR Inten    --     74.0475                37.0240                46.1599

                     82                     83                     84
                      A                      A                      A
 Frequencies --   3120.0780              3121.5383              3125.6036
 Red. masses --      1.1024                 1.1027                 1.0956
 Frc consts  --      6.3228                 6.3305                 6.3063
 IR Inten    --     60.7946                53.8038                42.4290

                     85                     86                     87
                      A                      A                      A
 Frequencies --   3131.4617              3134.4950              3136.5163
 Red. masses --      1.1033                 1.0951                 1.0987
 Frc consts  --      6.3742                 6.3391                 6.3685
 IR Inten    --     41.1610                43.8032                44.5841

 - Thermochemistry -
 -------------------
 Temperature   298.150 Kelvin.  Pressure   1.00000 Atm.
 Atom     1 has atomic number  6 and mass  12.00000

 Molecular mass:   186.12559 amu.
 Principal axes and moments of inertia in atomic units:
                           1         2         3
     Eigenvalues --   931.161984402.114784711.48609
           X            0.99997   0.00716   0.00025
           Y           -0.00716   0.99996  -0.00598
           Z           -0.00030   0.00598   0.99998
 This molecule is an asymmetric top.
 Rotational symmetry number  1.
 Warning -- assumption of classical behavior for rotation
           may cause significant error
 Rotational temperatures (Kelvin)      0.09302     0.01968     0.01838
 Rotational constants (GHZ):           1.93816     0.40997     0.38305
 Zero-point vibrational energy     737132.1 (Joules/Mol)
                                  176.17881 (Kcal/Mol)
 Warning -- explicit consideration of  18 degrees of freedom as
           vibrations may cause significant error
 Vibrational temperatures:     47.66    79.27   120.76   203.72   258.93
          (Kelvin)            338.36   362.95   415.21   492.78   539.99
                              559.76   626.61   650.21   676.14   687.63
                              768.00   835.00   872.05  1043.34  1199.17
                             1200.60  1211.40  1264.37  1283.95  1294.21
                             1305.25  1340.40  1357.80  1420.66  1430.99
                             1478.53  1504.30  1518.42  1530.76  1542.36
                             1603.20  1653.57  1659.35  1677.65  1680.37
                             1717.08  1740.60  1757.59  1775.46  1802.14
                             1855.74  1876.99  1899.68  1913.67  1936.29
                             1939.59  1957.61  1990.46  1994.93  2004.10
                             2012.82  2019.42  2023.20  2047.24  2061.36
                             2070.45  2124.77  2131.17  2133.37  2150.99
                             2152.39  2160.50  2171.97  2179.71  4343.45
                             4348.75  4396.02  4397.32  4408.24  4415.33
                             4418.25  4420.82  4423.74  4436.08  4479.97
                             4482.89  4489.10  4491.20  4497.05  4505.47
                             4509.84  4512.75

 Zero-point correction=                           0.280759 (Hartree/Particle)
 Thermal correction to Energy=                    0.292512
 Thermal correction to Enthalpy=                  0.293456
 Thermal correction to Gibbs Free Energy=         0.242129
 Sum of electronic and zero-point Energies=           -617.223891
 Sum of electronic and thermal Energies=              -617.212138
 Sum of electronic and thermal Enthalpies=            -617.211194
 Sum of electronic and thermal Free Energies=         -617.262520

                     E (Thermal)             CV                S
                      KCal/Mol        Cal/Mol-Kelvin    Cal/Mol-Kelvin
 Total                  183.554             46.667            108.025
 Electronic               0.000              0.000              0.000
 Translational            0.889              2.981             41.570
 Rotational               0.889              2.981             31.335
 Vibrational            181.776             40.705             35.120
 Vibration     1          0.594              1.983              5.633
 Vibration     2          0.596              1.976              4.626
 Vibration     3          0.601              1.960              3.797
 Vibration     4          0.615              1.912              2.782
 Vibration     5          0.629              1.867              2.329
 Vibration     6          0.655              1.787              1.839
 Vibration     7          0.664              1.759              1.715
 Vibration     8          0.685              1.695              1.482
 Vibration     9          0.722              1.591              1.200
 Vibration    10          0.746              1.523              1.058
 Vibration    11          0.757              1.494              1.004
 Vibration    12          0.796              1.393              0.841
 Vibration    13          0.811              1.357              0.790
 Vibration    14          0.827              1.317              0.738
 Vibration    15          0.834              1.299              0.716
 Vibration    16          0.889              1.175              0.579
 Vibration    17          0.937              1.074              0.485
 Vibration    18          0.965              1.019              0.439

 Optimization completed.
    -- Stationary point found.
 Normal termination of Gaussian 16 at Sun Nov  4 22:46:58 2018.
