 Gaussian 16, Revision A.03,
 Gaussian 16:  ES64L-G16RevA.03 25-Dec-2016

 ----------------------------------------------------------------------
 #M062X/6-311++G(2d,2p) opt=ModRedundant freq=noraman SCRF=(Solvent=Wat
 er)
 ----------------------------------------------------------------------

 ---------------------------
 L_a1-e4_D_PSI.inp_extract_5
 ---------------------------
 Symbolic Z-matrix:
 Charge =  0 Multiplicity = 1

 SCF Done:  E(RM062X) =  -617.496994510     A.U. after   12 cycles
 SCF Done:  E(RM062X) =  -617.498692522     A.U. after   12 cycles
 SCF Done:  E(RM062X) =  -617.498915454     A.U. after   10 cycles
 SCF Done:  E(RM062X) =  -617.499046155     A.U. after   10 cycles
 SCF Done:  E(RM062X) =  -617.499054128     A.U. after    9 cycles
 SCF Done:  E(RM062X) =  -617.499054655     A.U. after    7 cycles
 Optimization completed.
    -- Stationary point found.
 Normal termination of Gaussian 16 at Sun Nov  4 21:50:46 2018.

 ----------------------------------------------------------------------
 #N Geom=AllCheck Guess=TCheck SCRF=Check GenChk RM062X/6-311++G(2d,2p)
  Freq
 ----------------------------------------------------------------------

 Structure from the checkpoint file:  "L_a1-e4_D_PSI.inp_extract_5.chk"
 ---------------------------
 L_a1-e4_D_PSI.inp_extract_5
 ---------------------------
 Charge =  0 Multiplicity = 1

                         Standard orientation:
 ---------------------------------------------------------------------
 Center     Atomic      Atomic             Coordinates (Angstroms)
 Number     Number       Type             X           Y           Z
 ---------------------------------------------------------------------
      1          6           0       -2.302842   -1.105015   -0.937826
      2          8           0       -1.523782   -1.248266    0.250714
      3          6           0       -3.219407    1.051281   -0.086771
      4          8           0        2.782302   -1.322616    0.137343
      5          6           0       -1.131092   -0.014356    0.817851
      6          6           0       -2.332219    0.859681    1.142382
      7          6           0        3.374692    0.883465   -0.677991
      8          8           0       -0.306729    0.712887   -0.054443
      9          6           0        1.967467    1.366959   -0.332126
     10          6           0        3.752510   -0.286023    0.215237
     11          6           0        0.988567    0.201802   -0.369776
     12          6           0        1.506295   -0.889663    0.572764
     13          6           0       -3.573017   -0.313067   -0.676646
     14          1           0       -1.701447   -0.612595   -1.707330
     15          1           0       -2.521987   -2.117894   -1.267977
     16          1           0       -2.687018    1.643595   -0.833281
     17          1           0       -4.119758    1.601899    0.183584
     18          1           0       -0.596583   -0.286182    1.727532
     19          1           0       -2.896653    0.358670    1.930868
     20          1           0       -1.978417    1.811434    1.536415
     21          1           0        4.100092    1.687925   -0.556229
     22          1           0        3.411100    0.560385   -1.720381
     23          1           0        1.950305    1.787396    0.677054
     24          1           0        1.640232    2.146656   -1.020300
     25          1           0        4.698635   -0.730762   -0.085368
     26          1           0        3.839376    0.046809    1.256668
     27          1           0        0.952836   -0.226510   -1.376943
     28          1           0        0.858366   -1.762071    0.571803
     29          1           0        1.581343   -0.498882    1.595183
     30          1           0       -4.130456   -0.207795   -1.607880
     31          1           0       -4.200016   -0.868507    0.025082
 ---------------------------------------------------------------------

 SCF Done:  E(RM062X) =  -617.499054655     A.U. after    1 cycles

 The electronic state is 1-A.
 Alpha  occ. eigenvalues --  -19.63265 -19.63221 -19.62901 -10.63596 -10.58940
 Alpha  occ. eigenvalues --  -10.58221 -10.58073 -10.57746 -10.53255 -10.53190
 Alpha  occ. eigenvalues --  -10.53079 -10.52974 -10.52846  -1.19974  -1.16730
 Alpha  occ. eigenvalues --   -1.13289  -0.91078  -0.89757  -0.87057  -0.84852
 Alpha  occ. eigenvalues --   -0.75251  -0.74106  -0.72631  -0.70733  -0.66126
 Alpha  occ. eigenvalues --   -0.63536  -0.60384  -0.58985  -0.56665  -0.55344
 Alpha  occ. eigenvalues --   -0.54604  -0.53178  -0.52483  -0.50747  -0.49869
 Alpha  occ. eigenvalues --   -0.48435  -0.47116  -0.45787  -0.45617  -0.44680
 Alpha  occ. eigenvalues --   -0.43698  -0.43069  -0.40954  -0.40421  -0.39601
 Alpha  occ. eigenvalues --   -0.38409  -0.37798  -0.36700  -0.34505  -0.33004
 Alpha  occ. eigenvalues --   -0.32402
 Alpha virt. eigenvalues --   -0.00066   0.00732   0.00803   0.01115   0.02128
 Alpha virt. eigenvalues --    0.02439   0.02619   0.03449   0.03649   0.04412
 Alpha virt. eigenvalues --    0.04598   0.04735   0.05680   0.05796   0.07149

 Mulliken charges:
               1
     1  C   -0.100554
     2  O   -0.275572
     3  C   -0.280492
     4  O   -0.348843
     5  C    0.013575
     6  C   -0.552358
     7  C   -0.374876
     8  O   -0.312249
     9  C   -0.260115
    10  C   -0.145147
    11  C   -0.057381
    12  C   -0.323579
    13  C   -0.408784
    14  H    0.136331
    15  H    0.200882
    16  H    0.177642
    17  H    0.183627
    18  H    0.282264
    19  H    0.191563
    20  H    0.183610
    21  H    0.177815
    22  H    0.163037
    23  H    0.198984
    24  H    0.171557
    25  H    0.205702
    26  H    0.134187
    27  H    0.248802
    28  H    0.227385
    29  H    0.208143
    30  H    0.172141
    31  H    0.162701
 Sum of Mulliken charges =  -0.00000

 Dipole moment (field-independent basis, Debye):
    X=             -0.3469    Y=              2.2892    Z=              0.1934  Tot=              2.3234
 Quadrupole moment (field-independent basis, Debye-Ang):
   XX=            -71.5019   YY=            -86.4952   ZZ=            -76.6764
   XY=              5.5256   XZ=              1.4925   YZ=              1.8054

  Exact polarizability: 176.820   1.317 154.874  -0.848   1.897 153.703
 Approx polarizability: 146.969   1.294 142.105  -0.966   1.030 142.928

 ******    1 imaginary frequencies (negative Signs) ******

                      1                      2                      3
                      A                      A                      A
 Frequencies --    -32.5760                60.3967                97.1153
 Red. masses --      3.5058                 4.2691                 3.6041
 Frc consts  --      0.0022                 0.0092                 0.0200
 IR Inten    --      1.4650                 0.7654                 1.8764

                      4                      5                      6
                      A                      A                      A
 Frequencies --    151.2379               201.2233               222.3392
 Red. masses --      3.0908                 3.7417                 2.7957
 Frc consts  --      0.0417                 0.0893                 0.0814
 IR Inten    --      0.0657                 3.3115                 8.3785

                      7                      8                      9
                      A                      A                      A
 Frequencies --    257.5204               267.2332               340.1242
 Red. masses --      2.1477                 2.4751                 2.9426
 Frc consts  --      0.0839                 0.1041                 0.2006
 IR Inten    --      2.6757                 1.9612                14.3798

                     10                     11                     12
                      A                      A                      A
 Frequencies --    365.9113               382.4159               440.6164
 Red. masses --      2.0828                 2.4010                 3.4824
 Frc consts  --      0.1643                 0.2069                 0.3983
 IR Inten    --      3.8583                19.6072                 6.9369

                     13                     14                     15
                      A                      A                      A
 Frequencies --    442.9018               463.3783               491.5320
 Red. masses --      3.4153                 3.1847                 2.4333
 Frc consts  --      0.3947                 0.4029                 0.3464
 IR Inten    --      3.7187                 0.6631                 2.4937

                     16                     17                     18
                      A                      A                      A
 Frequencies --    541.2422               577.7713               628.0535
 Red. masses --      1.9759                 2.2611                 3.9141
 Frc consts  --      0.3410                 0.4447                 0.9097
 IR Inten    --      1.0976                10.5138                 4.1762

                     19                     20                     21
                      A                      A                      A
 Frequencies --    715.7795               826.6684               834.0157
 Red. masses --      2.9656                 1.8944                 1.6966
 Frc consts  --      0.8952                 0.7627                 0.6953
 IR Inten    --      1.7718                 2.1800                 2.6395

                     22                     23                     24
                      A                      A                      A
 Frequencies --    840.0234               877.8170               889.1801
 Red. masses --      3.5761                 1.3859                 2.3699
 Frc consts  --      1.4868                 0.6292                 1.1040
 IR Inten    --     10.2588                10.0390                 7.7342

                     25                     26                     27
                      A                      A                      A
 Frequencies --    897.5817               912.9155               927.4450
 Red. masses --      2.5997                 2.3945                 1.7725
 Frc consts  --      1.2340                 1.1758                 0.8983
 IR Inten    --     38.8851                10.9606                24.6398

                     28                     29                     30
                      A                      A                      A
 Frequencies --    943.5607               985.8777               998.5299
 Red. masses --      2.1247                 1.5739                 2.1598
 Frc consts  --      1.1145                 0.9013                 1.2688
 IR Inten    --     26.7629                50.0439                41.0855

                     31                     32                     33
                      A                      A                      A
 Frequencies --   1013.5216              1042.3398              1055.5253
 Red. masses --      2.0107                 2.3078                 1.7197
 Frc consts  --      1.2169                 1.4773                 1.1288
 IR Inten    --     31.5115                74.3783                29.8310

                     34                     35                     36
                      A                      A                      A
 Frequencies --   1062.0510              1072.3453              1114.1993
 Red. masses --      1.6169                 2.1457                 4.1107
 Frc consts  --      1.0746                 1.4537                 3.0067
 IR Inten    --     60.5478                32.6888               284.9453

                     37                     38                     39
                      A                      A                      A
 Frequencies --   1137.7634              1152.0897              1169.4860
 Red. masses --      2.4526                 2.8896                 2.5074
 Frc consts  --      1.8706                 2.2598                 2.0205
 IR Inten    --     16.0166               153.3207                39.3259

                     40                     41                     42
                      A                      A                      A
 Frequencies --   1183.3544              1189.1590              1212.3496
 Red. masses --      3.2753                 2.9549                 1.4188
 Frc consts  --      2.7023                 2.4619                 1.2286
 IR Inten    --     82.8469               138.9351                19.0891

                     43                     44                     45
                      A                      A                      A
 Frequencies --   1216.5033              1234.0135              1251.0145
 Red. masses --      1.4697                 1.6203                 1.4920
 Frc consts  --      1.2815                 1.4537                 1.3758
 IR Inten    --     15.1018                53.8997                14.3998

                     46                     47                     48
                      A                      A                      A
 Frequencies --   1288.2480              1305.2900              1320.0280
 Red. masses --      1.2129                 1.1529                 1.1518
 Frc consts  --      1.1860                 1.1573                 1.1825
 IR Inten    --     17.1288                23.5451                 8.7465

                     49                     50                     51
                      A                      A                      A
 Frequencies --   1337.7373              1344.1098              1357.2318
 Red. masses --      1.3105                 1.2430                 1.2214
 Frc consts  --      1.3818                 1.3230                 1.3256
 IR Inten    --      8.3235                 1.8601                 6.0500

                     52                     53                     54
                      A                      A                      A
 Frequencies --   1362.9758              1384.4717              1385.1980
 Red. masses --      1.3351                 1.4549                 1.4221
 Frc consts  --      1.4613                 1.6430                 1.6077
 IR Inten    --      4.9708                 0.3274                 8.4649

                     55                     56                     57
                      A                      A                      A
 Frequencies --   1391.3131              1396.6301              1402.9249
 Red. masses --      1.6471                 1.3350                 1.4555
 Frc consts  --      1.8786                 1.5342                 1.6879
 IR Inten    --     22.3572                13.0419                 3.1947

                     58                     59                     60
                      A                      A                      A
 Frequencies --   1411.9194              1424.5977              1429.0272
 Red. masses --      1.3747                 1.3802                 1.4030
 Frc consts  --      1.6146                 1.6504                 1.6881
 IR Inten    --      8.4020                13.6471                 7.0883

                     61                     62                     63
                      A                      A                      A
 Frequencies --   1432.2531              1475.3711              1481.3311
 Red. masses --      1.3765                 1.1042                 1.0935
 Frc consts  --      1.6637                 1.4162                 1.4138
 IR Inten    --     20.1415                 5.5264                 9.1622

                     64                     65                     66
                      A                      A                      A
 Frequencies --   1481.5227              1494.0378              1497.1664
 Red. masses --      1.0857                 1.1096                 1.1101
 Frc consts  --      1.4041                 1.4593                 1.4660
 IR Inten    --      6.1135                13.8667                 9.2012

                     67                     68                     69
                      A                      A                      A
 Frequencies --   1506.3964              1507.8794              1523.4516
 Red. masses --      1.0847                 1.0928                 1.0951
 Frc consts  --      1.4502                 1.4639                 1.4975
 IR Inten    --      2.3081                 3.7206                 7.0056

                     70                     71                     72
                      A                      A                      A
 Frequencies --   3017.4694              3021.8306              3041.4478
 Red. masses --      1.0705                 1.0705                 1.0821
 Frc consts  --      5.7427                 5.7592                 5.8979
 IR Inten    --     20.3252                82.7016                64.2099

                     73                     74                     75
                      A                      A                      A
 Frequencies --   3053.2406              3060.3920              3063.2288
 Red. masses --      1.0690                 1.0649                 1.0625
 Frc consts  --      5.8715                 5.8766                 5.8743
 IR Inten    --     44.5951                51.1108                40.8493

                     76                     77                     78
                      A                      A                      A
 Frequencies --   3072.0324              3073.1416              3078.2289
 Red. masses --      1.0620                 1.0629                 1.0624
 Frc consts  --      5.9052                 5.9141                 5.9314
 IR Inten    --     37.2790                29.8877                19.8746

                     79                     80                     81
                      A                      A                      A
 Frequencies --   3109.3205              3112.9439              3113.7359
 Red. masses --      1.0870                 1.0972                 1.0994
 Frc consts  --      6.1919                 6.2646                 6.2803
 IR Inten    --     93.3157                 9.7695                44.2542

                     82                     83                     84
                      A                      A                      A
 Frequencies --   3119.1624              3121.7800              3130.3931
 Red. masses --      1.1023                 1.1026                 1.1033
 Frc consts  --      6.3186                 6.3310                 6.3702
 IR Inten    --     66.4737                52.9428                40.7778

                     85                     86                     87
                      A                      A                      A
 Frequencies --   3134.5081              3135.8941              3154.3769
 Red. masses --      1.0949                 1.0982                 1.0944
 Frc consts  --      6.3381                 6.3628                 6.4156
 IR Inten    --     47.8341                45.2156                16.1842

 - Thermochemistry -
 -------------------
 Temperature   298.150 Kelvin.  Pressure   1.00000 Atm.
 Atom     1 has atomic number  6 and mass  12.00000

 Molecular mass:   186.12559 amu.
 Principal axes and moments of inertia in atomic units:
                           1         2         3
     Eigenvalues --   905.533884341.214524658.47114
           X            0.99998   0.00557   0.00207
           Y           -0.00560   0.99981   0.01886
           Z           -0.00196  -0.01887   0.99982
 This molecule is an asymmetric top.
 Rotational symmetry number  1.
 Warning -- assumption of classical behavior for rotation
           may cause significant error
 Rotational temperatures (Kelvin)      0.09565     0.01995     0.01859
 Rotational constants (GHZ):           1.99301     0.41572     0.38741
    1 imaginary frequencies ignored.
 Zero-point vibrational energy     737141.1 (Joules/Mol)
                                  176.18094 (Kcal/Mol)
 Warning -- explicit consideration of  16 degrees of freedom as
           vibrations may cause significant error
 Vibrational temperatures:     86.90   139.73   217.60   289.52   319.90
          (Kelvin)            370.51   384.49   489.36   526.46   550.21
                              633.95   637.24   666.70   707.20   778.73
                              831.28   903.63  1029.85  1189.39  1199.96
                             1208.61  1262.98  1279.33  1291.42  1313.48
                             1334.39  1357.57  1418.46  1436.66  1458.23
                             1499.69  1518.67  1528.05  1542.87  1603.08
                             1636.99  1657.60  1682.63  1702.58  1710.93
                             1744.30  1750.28  1775.47  1799.93  1853.50
                             1878.02  1899.23  1924.71  1933.87  1952.75
                             1961.02  1991.95  1992.99  2001.79  2009.44
                             2018.50  2031.44  2049.68  2056.05  2060.69
                             2122.73  2131.31  2131.58  2149.59  2154.09
                             2167.37  2169.50  2191.91  4341.47  4347.74
                             4375.96  4392.93  4403.22  4407.30  4419.97
                             4421.57  4428.88  4473.62  4478.83  4479.97
                             4487.78  4491.55  4503.94  4509.86  4511.85
                             4538.44

 Zero-point correction=                           0.280762 (Hartree/Particle)
 Thermal correction to Energy=                    0.291607
 Thermal correction to Enthalpy=                  0.292552
 Thermal correction to Gibbs Free Energy=         0.244191
 Sum of electronic and zero-point Energies=           -617.218292
 Sum of electronic and thermal Energies=              -617.207447
 Sum of electronic and thermal Enthalpies=            -617.206503
 Sum of electronic and thermal Free Energies=         -617.254864

                     E (Thermal)             CV                S
                      KCal/Mol        Cal/Mol-Kelvin    Cal/Mol-Kelvin
 Total                  182.986             44.707            101.784
 Electronic               0.000              0.000              0.000
 Translational            0.889              2.981             41.570
 Rotational               0.889              2.981             31.283
 Vibrational            181.209             38.746             28.931
 Vibration     1          0.597              1.973              4.444
 Vibration     2          0.603              1.951              3.511
 Vibration     3          0.619              1.901              2.657
 Vibration     4          0.638              1.838              2.122
 Vibration     5          0.648              1.807              1.940
 Vibration     6          0.667              1.750              1.679
 Vibration     7          0.672              1.733              1.614
 Vibration     8          0.720              1.595              1.212
 Vibration     9          0.739              1.542              1.097
 Vibration    10          0.752              1.508              1.030
 Vibration    11          0.801              1.382              0.825
 Vibration    12          0.803              1.377              0.818
 Vibration    13          0.821              1.331              0.756
 Vibration    14          0.847              1.269              0.680
 Vibration    15          0.896              1.159              0.563
 Vibration    16          0.934              1.079              0.490

 Optimization completed.
    -- Stationary point found.
 Normal termination of Gaussian 16 at Sun Nov  4 23:00:14 2018.
