 Gaussian 16, Revision A.03,
 Gaussian 16:  ES64L-G16RevA.03 25-Dec-2016

 ----------------------------------------------------------------------
 #M062X/6-311++G(2d,2p) opt=ModRedundant freq=noraman SCRF=(Solvent=Wat
 er)
 ----------------------------------------------------------------------

 ----------------------------
 L_a1-e4_D_PSI.inp_extract_15
 ----------------------------
 Symbolic Z-matrix:
 Charge =  0 Multiplicity = 1

 SCF Done:  E(RM062X) =  -617.496504463     A.U. after   12 cycles
 SCF Done:  E(RM062X) =  -617.498107529     A.U. after   11 cycles
 SCF Done:  E(RM062X) =  -617.498425599     A.U. after   11 cycles
 SCF Done:  E(RM062X) =  -617.498574523     A.U. after    9 cycles
 SCF Done:  E(RM062X) =  -617.498581468     A.U. after    9 cycles
 SCF Done:  E(RM062X) =  -617.498582369     A.U. after    8 cycles
 SCF Done:  E(RM062X) =  -617.498582281     A.U. after    6 cycles
 Optimization completed.
    -- Stationary point found.
 Normal termination of Gaussian 16 at Sun Nov  4 21:59:43 2018.

 ----------------------------------------------------------------------
 #N Geom=AllCheck Guess=TCheck SCRF=Check GenChk RM062X/6-311++G(2d,2p)
  Freq
 ----------------------------------------------------------------------

 Structure from the checkpoint file:  "L_a1-e4_D_PSI.inp_extract_15.chk"
 ----------------------------
 L_a1-e4_D_PSI.inp_extract_15
 ----------------------------
 Charge =  0 Multiplicity = 1

                         Standard orientation:
 ---------------------------------------------------------------------
 Center     Atomic      Atomic             Coordinates (Angstroms)
 Number     Number       Type             X           Y           Z
 ---------------------------------------------------------------------
      1          6           0       -1.907352   -0.833667    1.262823
      2          8           0       -1.336443    0.472937    1.181708
      3          6           0       -3.221353   -0.399392   -0.807544
      4          8           0        3.029200   -1.141634   -0.650208
      5          6           0       -1.212932    0.958056   -0.139786
      6          6           0       -2.557879    0.975503   -0.852209
      7          6           0        3.091448    0.982413    0.522551
      8          8           0       -0.340801    0.167991   -0.903927
      9          6           0        1.564201    1.080806    0.476234
     10          6           0        3.533426   -0.471220    0.497886
     11          6           0        1.072825    0.299306   -0.736915
     12          6           0        1.616420   -1.124008   -0.679293
     13          6           0       -3.293030   -0.877483    0.641347
     14          1           0       -1.248516   -1.549036    0.762748
     15          1           0       -1.934971   -1.075134    2.323073
     16          1           0       -2.636085   -1.108092   -1.396840
     17          1           0       -4.215561   -0.351046   -1.250487
     18          1           0       -0.824846    1.969558   -0.029773
     19          1           0       -3.189613    1.704518   -0.341193
     20          1           0       -2.409178    1.319025   -1.874987
     21          1           0        3.472912    1.463837    1.422980
     22          1           0        3.525771    1.498363   -0.336416
     23          1           0        1.134758    0.651227    1.382578
     24          1           0        1.262094    2.125881    0.425752
     25          1           0        4.616824   -0.557256    0.451572
     26          1           0        3.181169   -0.987074    1.399553
     27          1           0        1.466312    0.779974   -1.638731
     28          1           0        1.303330   -1.680948   -1.560450
     29          1           0        1.210295   -1.618507    0.212860
     30          1           0       -3.684117   -1.893452    0.703947
     31          1           0       -3.960865   -0.228078    1.212663
 ---------------------------------------------------------------------

 SCF Done:  E(RM062X) =  -617.498582281     A.U. after    1 cycles

 The electronic state is 1-A.
 Alpha  occ. eigenvalues --  -19.63156 -19.63156 -19.62730 -10.63477 -10.58914
 Alpha  occ. eigenvalues --  -10.58066 -10.57995 -10.57665 -10.53374 -10.53302
 Alpha  occ. eigenvalues --  -10.52997 -10.52930 -10.52804  -1.19738  -1.16705
 Alpha  occ. eigenvalues --   -1.13217  -0.91041  -0.89663  -0.87536  -0.84401
 Alpha  occ. eigenvalues --   -0.75245  -0.73876  -0.72571  -0.70831  -0.66571
 Alpha  occ. eigenvalues --   -0.62733  -0.60286  -0.58569  -0.57258  -0.55382
 Alpha  occ. eigenvalues --   -0.54022  -0.53487  -0.52418  -0.50526  -0.49615
 Alpha  occ. eigenvalues --   -0.48784  -0.46943  -0.46136  -0.45630  -0.44385
 Alpha  occ. eigenvalues --   -0.43740  -0.43525  -0.40840  -0.40055  -0.39485
 Alpha  occ. eigenvalues --   -0.38307  -0.37564  -0.36343  -0.34798  -0.33044
 Alpha  occ. eigenvalues --   -0.32140
 Alpha virt. eigenvalues --   -0.00069   0.00778   0.00847   0.00994   0.02215
 Alpha virt. eigenvalues --    0.02494   0.02646   0.03350   0.03615   0.04449
 Alpha virt. eigenvalues --    0.04748   0.04899   0.05625   0.05866   0.07144

 Mulliken charges:
               1
     1  C   -0.059082
     2  O   -0.266630
     3  C   -0.282386
     4  O   -0.343192
     5  C    0.027702
     6  C   -0.602184
     7  C   -0.473901
     8  O   -0.328992
     9  C   -0.242194
    10  C   -0.168906
    11  C   -0.004663
    12  C   -0.240010
    13  C   -0.435823
    14  H    0.110604
    15  H    0.204442
    16  H    0.175264
    17  H    0.187649
    18  H    0.276240
    19  H    0.192484
    20  H    0.183923
    21  H    0.168813
    22  H    0.177099
    23  H    0.260464
    24  H    0.161051
    25  H    0.212414
    26  H    0.134959
    27  H    0.240443
    28  H    0.197952
    29  H    0.200759
    30  H    0.173272
    31  H    0.162430
 Sum of Mulliken charges =  -0.00000

 Dipole moment (field-independent basis, Debye):
    X=             -0.9988    Y=              1.0998    Z=              1.0194  Tot=              1.8018
 Quadrupole moment (field-independent basis, Debye-Ang):
   XX=            -77.1326   YY=            -78.6406   ZZ=            -82.7428
   XY=              6.3277   XZ=              5.8312   YZ=             -4.0842

  Exact polarizability: 174.866   2.872 155.912   1.717  -1.559 154.196
 Approx polarizability: 146.956   1.526 142.061  -0.986   0.257 143.307

 ******    1 imaginary frequencies (negative Signs) ******

                      1                      2                      3
                      A                      A                      A
 Frequencies --    -64.4843                63.0591               101.8921
 Red. masses --      3.6045                 4.1343                 3.4526
 Frc consts  --      0.0088                 0.0097                 0.0211
 IR Inten    --      0.5960                 1.3618                 4.0099

                      4                      5                      6
                      A                      A                      A
 Frequencies --    152.1013               178.7418               227.3642
 Red. masses --      2.7511                 3.6659                 2.9571
 Frc consts  --      0.0375                 0.0690                 0.0901
 IR Inten    --      1.2560                 1.8086                 6.6833

                      7                      8                      9
                      A                      A                      A
 Frequencies --    247.7131               289.7773               345.0807
 Red. masses --      2.0164                 2.7727                 2.5137
 Frc consts  --      0.0729                 0.1372                 0.1764
 IR Inten    --      5.3977                 3.9586                 4.9199

                     10                     11                     12
                      A                      A                      A
 Frequencies --    363.9991               377.9455               436.3579
 Red. masses --      2.4515                 2.5227                 3.3309
 Frc consts  --      0.1914                 0.2123                 0.3737
 IR Inten    --      9.8040                13.2772                 2.3415

                     13                     14                     15
                      A                      A                      A
 Frequencies --    442.4471               462.8024               474.5990
 Red. masses --      2.7636                 3.2735                 2.6402
 Frc consts  --      0.3187                 0.4131                 0.3504
 IR Inten    --      8.2941                 4.9364                 1.0033

                     16                     17                     18
                      A                      A                      A
 Frequencies --    535.5618               567.3249               631.2505
 Red. masses --      2.0648                 2.3106                 4.0247
 Frc consts  --      0.3489                 0.4382                 0.9449
 IR Inten    --      4.5432                18.5432                 6.7948

                     19                     20                     21
                      A                      A                      A
 Frequencies --    710.7977               821.9868               836.6976
 Red. masses --      2.7578                 2.0435                 1.6034
 Frc consts  --      0.8209                 0.8135                 0.6614
 IR Inten    --      4.5277                 0.8735                 1.4896

                     22                     23                     24
                      A                      A                      A
 Frequencies --    842.1906               877.3361               890.2707
 Red. masses --      3.3316                 1.4106                 2.3560
 Frc consts  --      1.3923                 0.6397                 1.1002
 IR Inten    --     12.2526                12.9213                18.7087

                     25                     26                     27
                      A                      A                      A
 Frequencies --    896.1581               912.7387               930.1427
 Red. masses --      2.5192                 2.2416                 1.7868
 Frc consts  --      1.1920                 1.1003                 0.9108
 IR Inten    --     13.8685                18.3971                23.8121

                     28                     29                     30
                      A                      A                      A
 Frequencies --    946.8950               979.3891               996.4256
 Red. masses --      2.2049                 2.1194                 1.6038
 Frc consts  --      1.1648                 1.1978                 0.9382
 IR Inten    --     29.3251                16.5999                11.2688

                     31                     32                     33
                      A                      A                      A
 Frequencies --   1019.1095              1044.2725              1061.3701
 Red. masses --      2.1794                 2.2459                 1.6212
 Frc consts  --      1.3336                 1.4430                 1.0760
 IR Inten    --     87.4047                60.6217                67.3797

                     34                     35                     36
                      A                      A                      A
 Frequencies --   1063.5284              1072.8313              1116.7151
 Red. masses --      1.7382                 2.0987                 4.4913
 Frc consts  --      1.1584                 1.4232                 3.2999
 IR Inten    --     15.6308                30.3116               249.5720

                     37                     38                     39
                      A                      A                      A
 Frequencies --   1142.3358              1156.7152              1168.1363
 Red. masses --      2.2727                 3.1201                 2.3546
 Frc consts  --      1.7473                 2.4597                 1.8930
 IR Inten    --      7.6487               129.8901                15.2442

                     40                     41                     42
                      A                      A                      A
 Frequencies --   1176.8870              1189.1329              1209.0537
 Red. masses --      3.8137                 2.3120                 1.4347
 Frc consts  --      3.1122                 1.9262                 1.2357
 IR Inten    --    247.4935                18.0647                22.3869

                     43                     44                     45
                      A                      A                      A
 Frequencies --   1216.1941              1233.6025              1253.2828
 Red. masses --      1.5772                 1.6480                 1.4744
 Frc consts  --      1.3745                 1.4776                 1.3645
 IR Inten    --    101.3356                45.6213                12.1909

                     46                     47                     48
                      A                      A                      A
 Frequencies --   1287.4712              1300.7293              1319.3773
 Red. masses --      1.2149                 1.1699                 1.1520
 Frc consts  --      1.1865                 1.1662                 1.1815
 IR Inten    --     16.2883                 6.4215                 6.9093

                     49                     50                     51
                      A                      A                      A
 Frequencies --   1329.4989              1348.3333              1352.8153
 Red. masses --      1.2746                 1.2605                 1.2019
 Frc consts  --      1.3274                 1.3501                 1.2960
 IR Inten    --      8.6023                 4.1181                 5.7105

                     52                     53                     54
                      A                      A                      A
 Frequencies --   1360.9440              1380.7280              1385.3531
 Red. masses --      1.3515                 1.4079                 1.4842
 Frc consts  --      1.4748                 1.5814                 1.6782
 IR Inten    --      9.0959                13.9414                 1.3002

                     55                     56                     57
                      A                      A                      A
 Frequencies --   1389.8388              1397.8139              1408.3355
 Red. masses --      1.6177                 1.2974                 1.4400
 Frc consts  --      1.8411                 1.4935                 1.6828
 IR Inten    --      5.5555                10.5446                12.5809

                     58                     59                     60
                      A                      A                      A
 Frequencies --   1415.7271              1416.1855              1428.1487
 Red. masses --      1.4314                 1.3620                 1.4676
 Frc consts  --      1.6904                 1.6095                 1.7636
 IR Inten    --      2.1307                26.3085                 7.6467

                     61                     62                     63
                      A                      A                      A
 Frequencies --   1432.8518              1477.1638              1481.5622
 Red. masses --      1.3573                 1.1042                 1.0937
 Frc consts  --      1.6418                 1.4196                 1.4145
 IR Inten    --     17.8340                 4.8734                 9.1888

                     64                     65                     66
                      A                      A                      A
 Frequencies --   1483.5597              1496.2495              1496.9911
 Red. masses --      1.0856                 1.1068                 1.1005
 Frc consts  --      1.4078                 1.4599                 1.4531
 IR Inten    --      7.8741                11.9299                 8.7049

                     67                     68                     69
                      A                      A                      A
 Frequencies --   1500.6582              1509.7916              1514.1283
 Red. masses --      1.0925                 1.0943                 1.1020
 Frc consts  --      1.4496                 1.4697                 1.4885
 IR Inten    --      2.2280                 3.4507                 7.8519

                     70                     71                     72
                      A                      A                      A
 Frequencies --   3013.1944              3020.0850              3037.8193
 Red. masses --      1.0696                 1.0706                 1.0830
 Frc consts  --      5.7218                 5.7532                 5.8884
 IR Inten    --     31.1816                81.3639                94.8767

                     73                     74                     75
                      A                      A                      A
 Frequencies --   3055.9735              3063.6756              3070.1560
 Red. masses --      1.0686                 1.0625                 1.0634
 Frc consts  --      5.8799                 5.8760                 5.9056
 IR Inten    --     45.0111                44.6654                35.1031

                     76                     77                     78
                      A                      A                      A
 Frequencies --   3072.3935              3077.7235              3082.6677
 Red. masses --      1.0631                 1.0625                 1.0603
 Frc consts  --      5.9126                 5.9298                 5.9364
 IR Inten    --     28.8003                30.0281                20.6923

                     79                     80                     81
                      A                      A                      A
 Frequencies --   3112.3771              3114.4345              3119.3474
 Red. masses --      1.0919                 1.0953                 1.1023
 Frc consts  --      6.2320                 6.2593                 6.3195
 IR Inten    --     57.6285                 8.9250                68.9708

                     82                     83                     84
                      A                      A                      A
 Frequencies --   3120.8561              3131.1371              3131.4810
 Red. masses --      1.0985                 1.0948                 1.1025
 Frc consts  --      6.3036                 6.3237                 6.3697
 IR Inten    --     48.2856                49.8478                37.3231

                     85                     86                     87
                      A                      A                      A
 Frequencies --   3133.6640              3134.5624              3136.1768
 Red. masses --      1.0977                 1.0983                 1.1005
 Frc consts  --      6.3508                 6.3580                 6.3772
 IR Inten    --     51.8598                63.2460                32.2080

 - Thermochemistry -
 -------------------
 Temperature   298.150 Kelvin.  Pressure   1.00000 Atm.
 Atom     1 has atomic number  6 and mass  12.00000

 Molecular mass:   186.12559 amu.
 Principal axes and moments of inertia in atomic units:
                           1         2         3
     Eigenvalues --   985.425474221.099264278.26629
           X            0.99987   0.01428   0.00771
           Y           -0.01218   0.97434  -0.22477
           Z           -0.01072   0.22465   0.97438
 This molecule is an asymmetric top.
 Rotational symmetry number  1.
 Warning -- assumption of classical behavior for rotation
           may cause significant error
 Rotational temperatures (Kelvin)      0.08789     0.02052     0.02025
 Rotational constants (GHZ):           1.83143     0.42755     0.42184
    1 imaginary frequencies ignored.
 Zero-point vibrational energy     736924.7 (Joules/Mol)
                                  176.12924 (Kcal/Mol)
 Warning -- explicit consideration of  16 degrees of freedom as
           vibrations may cause significant error
 Vibrational temperatures:     90.73   146.60   218.84   257.17   327.13
          (Kelvin)            356.40   416.92   496.49   523.71   543.78
                              627.82   636.58   665.87   682.84   770.55
                              816.25   908.23  1022.68  1182.66  1203.82
                             1211.72  1262.29  1280.90  1289.37  1313.23
                             1338.27  1362.37  1409.12  1433.63  1466.27
                             1502.48  1527.07  1530.18  1543.57  1606.70
                             1643.57  1664.26  1680.69  1693.28  1710.90
                             1739.56  1749.83  1774.88  1803.19  1852.38
                             1871.46  1898.29  1912.85  1939.95  1946.40
                             1958.09  1986.56  1993.21  1999.67  2011.14
                             2026.28  2036.92  2037.58  2054.79  2061.55
                             2125.31  2131.64  2134.51  2152.77  2153.84
                             2159.11  2172.25  2178.49  4335.31  4345.23
                             4370.74  4396.86  4407.95  4417.27  4420.49
                             4428.16  4435.27  4478.02  4480.98  4488.05
                             4490.22  4505.01  4505.50  4508.64  4509.94
                             4512.26

 Zero-point correction=                           0.280680 (Hartree/Particle)
 Thermal correction to Energy=                    0.291550
 Thermal correction to Enthalpy=                  0.292494
 Thermal correction to Gibbs Free Energy=         0.244140
 Sum of electronic and zero-point Energies=           -617.217902
 Sum of electronic and thermal Energies=              -617.207033
 Sum of electronic and thermal Enthalpies=            -617.206088
 Sum of electronic and thermal Free Energies=         -617.254442

                     E (Thermal)             CV                S
                      KCal/Mol        Cal/Mol-Kelvin    Cal/Mol-Kelvin
 Total                  182.950             44.787            101.770
 Electronic               0.000              0.000              0.000
 Translational            0.889              2.981             41.570
 Rotational               0.889              2.981             31.254
 Vibrational            181.173             38.825             28.946
 Vibration     1          0.597              1.972              4.359
 Vibration     2          0.604              1.948              3.418
 Vibration     3          0.619              1.900              2.646
 Vibration     4          0.629              1.868              2.342
 Vibration     5          0.651              1.799              1.900
 Vibration     6          0.661              1.767              1.747
 Vibration     7          0.686              1.693              1.475
 Vibration     8          0.723              1.585              1.189
 Vibration     9          0.738              1.546              1.105
 Vibration    10          0.748              1.517              1.047
 Vibration    11          0.797              1.391              0.838
 Vibration    12          0.802              1.378              0.819
 Vibration    13          0.820              1.333              0.758
 Vibration    14          0.831              1.306              0.725
 Vibration    15          0.891              1.171              0.575
 Vibration    16          0.923              1.102              0.509

 Optimization completed.
    -- Stationary point found.
 Normal termination of Gaussian 16 at Sun Nov  4 22:53:40 2018.
