 Gaussian 16, Revision A.03,
 Gaussian 16:  ES64L-G16RevA.03 25-Dec-2016

 ----------------------------------------------------------------------
 #M062X/6-311++G(2d,2p) opt=ModRedundant freq=noraman SCRF=(Solvent=Wat
 er)
 ----------------------------------------------------------------------

 ----------------------------
 L_a1-e4_D_PSI.inp_extract_12
 ----------------------------
 Symbolic Z-matrix:
 Charge =  0 Multiplicity = 1

 SCF Done:  E(RM062X) =  -617.499098725     A.U. after   13 cycles
 SCF Done:  E(RM062X) =  -617.500940930     A.U. after   12 cycles
 SCF Done:  E(RM062X) =  -617.501407248     A.U. after   10 cycles
 SCF Done:  E(RM062X) =  -617.501557145     A.U. after   10 cycles
 SCF Done:  E(RM062X) =  -617.501591508     A.U. after   10 cycles
 SCF Done:  E(RM062X) =  -617.501600727     A.U. after    8 cycles
 Optimization completed.
    -- Stationary point found.
 Normal termination of Gaussian 16 at Sun Nov  4 21:57:46 2018.

 ----------------------------------------------------------------------
 #N Geom=AllCheck Guess=TCheck SCRF=Check GenChk RM062X/6-311++G(2d,2p)
  Freq
 ----------------------------------------------------------------------

 Structure from the checkpoint file:  "L_a1-e4_D_PSI.inp_extract_12.chk"
 ----------------------------
 L_a1-e4_D_PSI.inp_extract_12
 ----------------------------
 Charge =  0 Multiplicity = 1

                         Standard orientation:
 ---------------------------------------------------------------------
 Center     Atomic      Atomic             Coordinates (Angstroms)
 Number     Number       Type             X           Y           Z
 ---------------------------------------------------------------------
      1          6           0        1.814475    1.370231    0.579988
      2          8           0        1.139181    0.248528    1.152976
      3          6           0        3.285167   -0.148277   -0.726646
      4          8           0       -2.759817    1.223148   -0.703441
      5          6           0        1.121450   -0.896115    0.326194
      6          6           0        2.520339   -1.312957   -0.102660
      7          6           0       -3.213298   -0.887079    0.413973
      8          8           0        0.362880   -0.691401   -0.838400
      9          6           0       -1.715477   -1.199403    0.459408
     10          6           0       -3.436414    0.616994    0.390228
     11          6           0       -1.042768   -0.479688   -0.701571
     12          6           0       -1.360626    1.012575   -0.629100
     13          6           0        3.254903    1.040907    0.230608
     14          1           0        1.282962    1.697920   -0.317703
     15          1           0        1.748603    2.160880    1.324177
     16          1           0        2.818853    0.134195   -1.672655
     17          1           0        4.309804   -0.446819   -0.945214
     18          1           0        0.669070   -1.671824    0.942270
     19          1           0        3.044480   -1.657587    0.790687
     20          1           0        2.437949   -2.155980   -0.787100
     21          1           0       -3.717815   -1.315210    1.280170
     22          1           0       -3.659932   -1.326868   -0.480026
     23          1           0       -1.305109   -0.838341    1.405621
     24          1           0       -1.540567   -2.274276    0.402261
     25          1           0       -4.490040    0.859891    0.271250
     26          1           0       -3.080229    1.063934    1.326528
     27          1           0       -1.470906   -0.856353   -1.633482
     28          1           0       -0.911991    1.533924   -1.473130
     29          1           0       -0.965678    1.431870    0.302932
     30          1           0        3.725335    1.918716   -0.213245
     31          1           0        3.800745    0.796600    1.145052
 ---------------------------------------------------------------------

 SCF Done:  E(RM062X) =  -617.501600727     A.U. after    1 cycles

 The electronic state is 1-A.
 Alpha  occ. eigenvalues --  -19.63319 -19.63079 -19.63041 -10.63457 -10.58868
 Alpha  occ. eigenvalues --  -10.58075 -10.57836 -10.57796 -10.53479 -10.53407
 Alpha  occ. eigenvalues --  -10.53073 -10.52995 -10.52889  -1.19931  -1.16556
 Alpha  occ. eigenvalues --   -1.13347  -0.91075  -0.89794  -0.87492  -0.84477
 Alpha  occ. eigenvalues --   -0.75134  -0.74149  -0.72838  -0.70796  -0.66999
 Alpha  occ. eigenvalues --   -0.62461  -0.60214  -0.58682  -0.57085  -0.55926
 Alpha  occ. eigenvalues --   -0.53554  -0.53290  -0.52488  -0.50804  -0.49716
 Alpha  occ. eigenvalues --   -0.49225  -0.46618  -0.46199  -0.45662  -0.45011
 Alpha  occ. eigenvalues --   -0.44042  -0.42951  -0.40648  -0.40215  -0.39165
 Alpha  occ. eigenvalues --   -0.38440  -0.38096  -0.36225  -0.35575  -0.33394
 Alpha  occ. eigenvalues --   -0.31713
 Alpha virt. eigenvalues --   -0.00084   0.00781   0.00856   0.00973   0.02241
 Alpha virt. eigenvalues --    0.02514   0.02667   0.03380   0.03540   0.04434
 Alpha virt. eigenvalues --    0.04752   0.04974   0.05635   0.05929   0.07157

 Mulliken charges:
               1
     1  C   -0.069603
     2  O   -0.280132
     3  C   -0.275826
     4  O   -0.349596
     5  C   -0.179580
     6  C   -0.476732
     7  C   -0.442407
     8  O   -0.311736
     9  C   -0.159762
    10  C   -0.147435
    11  C    0.055144
    12  C   -0.442995
    13  C   -0.446820
    14  H    0.133278
    15  H    0.213506
    16  H    0.175410
    17  H    0.189070
    18  H    0.257596
    19  H    0.195169
    20  H    0.188689
    21  H    0.169428
    22  H    0.177514
    23  H    0.240853
    24  H    0.178165
    25  H    0.216155
    26  H    0.131541
    27  H    0.259397
    28  H    0.216276
    29  H    0.248172
    30  H    0.173285
    31  H    0.163977
 Sum of Mulliken charges =  -0.00000

 Dipole moment (field-independent basis, Debye):
    X=              0.9459    Y=             -1.2208    Z=              1.2323  Tot=              1.9758
 Quadrupole moment (field-independent basis, Debye-Ang):
   XX=            -74.2313   YY=            -78.3965   ZZ=            -84.1575
   XY=              6.0173   XZ=             -5.0538   YZ=              0.2815

  Exact polarizability: 175.738   2.000 158.449  -1.862  -0.086 149.392
 Approx polarizability: 147.113   1.274 141.814   0.390  -0.503 143.150

                      1                      2                      3
                      A                      A                      A
 Frequencies --     57.5014                92.4205               104.9405
 Red. masses --      3.4152                 4.2474                 3.3714
 Frc consts  --      0.0067                 0.0214                 0.0219
 IR Inten    --      2.1604                 0.4936                 2.4216

                      4                      5                      6
                      A                      A                      A
 Frequencies --    161.3330               178.4871               231.0958
 Red. masses --      2.9484                 3.3316                 3.3215
 Frc consts  --      0.0452                 0.0625                 0.1045
 IR Inten    --      1.6627                 0.7008                 6.5888

                      7                      8                      9
                      A                      A                      A
 Frequencies --    266.4354               304.2581               334.2529
 Red. masses --      2.0478                 2.2193                 3.1510
 Frc consts  --      0.0857                 0.1210                 0.2074
 IR Inten    --      6.3276                 3.1052                13.2819

                     10                     11                     12
                      A                      A                      A
 Frequencies --    366.4190               382.8400               435.5161
 Red. masses --      2.2667                 2.6260                 3.1326
 Frc consts  --      0.1793                 0.2268                 0.3501
 IR Inten    --     20.2603                 3.6696                12.0342

                     13                     14                     15
                      A                      A                      A
 Frequencies --    440.0130               463.6423               483.3547
 Red. masses --      3.0998                 3.6171                 2.8025
 Frc consts  --      0.3536                 0.4581                 0.3858
 IR Inten    --      1.2254                 1.4194                 1.7597

                     16                     17                     18
                      A                      A                      A
 Frequencies --    537.9370               571.1198               658.9144
 Red. masses --      2.0644                 2.0304                 4.7352
 Frc consts  --      0.3520                 0.3902                 1.2113
 IR Inten    --      3.2140                15.3013                 3.1080

                     19                     20                     21
                      A                      A                      A
 Frequencies --    706.4098               822.0921               836.4996
 Red. masses --      2.7913                 1.9014                 1.7091
 Frc consts  --      0.8207                 0.7571                 0.7046
 IR Inten    --      2.2506                 2.0302                 1.8360

                     22                     23                     24
                      A                      A                      A
 Frequencies --    841.0294               884.5750               889.4412
 Red. masses --      3.3571                 1.3859                 2.4182
 Frc consts  --      1.3991                 0.6389                 1.1271
 IR Inten    --     10.6550                10.7305                 6.9462

                     25                     26                     27
                      A                      A                      A
 Frequencies --    895.7750               913.1821               929.3051
 Red. masses --      2.3705                 2.2994                 1.7917
 Frc consts  --      1.1207                 1.1297                 0.9117
 IR Inten    --     15.6460                28.6282                20.9797

                     28                     29                     30
                      A                      A                      A
 Frequencies --    949.2624               983.7510               995.4586
 Red. masses --      2.3996                 1.8737                 1.6744
 Frc consts  --      1.2740                 1.0684                 0.9776
 IR Inten    --     39.8809                33.8894                11.6574

                     31                     32                     33
                      A                      A                      A
 Frequencies --   1014.9204              1046.4922              1054.8031
 Red. masses --      2.0363                 2.3152                 1.7518
 Frc consts  --      1.2358                 1.4939                 1.1484
 IR Inten    --     58.6590                76.3398                12.6114

                     34                     35                     36
                      A                      A                      A
 Frequencies --   1062.3267              1074.5928              1115.2021
 Red. masses --      1.6084                 2.1092                 4.0794
 Frc consts  --      1.0694                 1.4350                 2.9892
 IR Inten    --     75.5202                30.3097               217.2428

                     37                     38                     39
                      A                      A                      A
 Frequencies --   1143.0042              1154.3069              1158.2165
 Red. masses --      2.6145                 3.1113                 2.3346
 Frc consts  --      2.0125                 2.4425                 1.8452
 IR Inten    --     37.0587               112.6268                21.0342

                     40                     41                     42
                      A                      A                      A
 Frequencies --   1179.0283              1194.2026              1210.6190
 Red. masses --      3.7856                 2.3025                 1.3924
 Frc consts  --      3.1005                 1.9347                 1.2023
 IR Inten    --    233.2267                46.1025                10.9726

                     43                     44                     45
                      A                      A                      A
 Frequencies --   1218.3978              1234.4214              1253.8574
 Red. masses --      1.4793                 1.6361                 1.5647
 Frc consts  --      1.2939                 1.4689                 1.4493
 IR Inten    --     35.7302                47.3836                14.7750

                     46                     47                     48
                      A                      A                      A
 Frequencies --   1290.6270              1308.5041              1324.5012
 Red. masses --      1.2150                 1.1877                 1.1605
 Frc consts  --      1.1924                 1.1981                 1.1995
 IR Inten    --     18.0346                 7.3491                10.1128

                     49                     50                     51
                      A                      A                      A
 Frequencies --   1331.5416              1345.6682              1362.9503
 Red. masses --      1.2761                 1.2717                 1.3643
 Frc consts  --      1.3330                 1.3568                 1.4933
 IR Inten    --     12.8097                 7.4037                 2.3616

                     52                     53                     54
                      A                      A                      A
 Frequencies --   1367.0742              1384.0168              1388.0179
 Red. masses --      1.2562                 1.4078                 1.4638
 Frc consts  --      1.3832                 1.5888                 1.6616
 IR Inten    --     13.8929                 5.5893                 0.8797

                     55                     56                     57
                      A                      A                      A
 Frequencies --   1393.3573              1401.7110              1405.0334
 Red. masses --      1.6921                 1.3944                 1.2517
 Frc consts  --      1.9356                 1.6142                 1.4559
 IR Inten    --      6.7089                 8.7606                10.9685

                     58                     59                     60
                      A                      A                      A
 Frequencies --   1416.1336              1419.4032              1427.8796
 Red. masses --      1.4044                 1.3587                 1.3913
 Frc consts  --      1.6594                 1.6128                 1.6713
 IR Inten    --      4.9305                22.2740                 2.8830

                     61                     62                     63
                      A                      A                      A
 Frequencies --   1437.0602              1475.0115              1482.4744
 Red. masses --      1.3521                 1.1033                 1.0876
 Frc consts  --      1.6452                 1.4143                 1.4083
 IR Inten    --     22.1365                 5.3136                 7.9709

                     64                     65                     66
                      A                      A                      A
 Frequencies --   1483.8332              1495.5224              1500.5659
 Red. masses --      1.0939                 1.1083                 1.1075
 Frc consts  --      1.4191                 1.4605                 1.4693
 IR Inten    --      8.7612                12.8556                 5.2963

                     67                     68                     69
                      A                      A                      A
 Frequencies --   1503.1872              1509.8821              1517.3872
 Red. masses --      1.0828                 1.0932                 1.0994
 Frc consts  --      1.4415                 1.4684                 1.4914
 IR Inten    --      1.3400                 2.9179                 8.6935

                     70                     71                     72
                      A                      A                      A
 Frequencies --   3019.0480              3043.5694              3058.7254
 Red. masses --      1.0706                 1.0655                 1.0677
 Frc consts  --      5.7496                 5.8153                 5.8855
 IR Inten    --     69.1798                38.4852                35.2580

                     73                     74                     75
                      A                      A                      A
 Frequencies --   3062.1181              3065.0241              3070.4969
 Red. masses --      1.0663                 1.0620                 1.0668
 Frc consts  --      5.8906                 5.8784                 5.9260
 IR Inten    --     10.6209                52.0621                 6.1345

                     76                     77                     78
                      A                      A                      A
 Frequencies --   3072.4737              3072.9077              3078.5166
 Red. masses --      1.0662                 1.0708                 1.0628
 Frc consts  --      5.9299                 5.9573                 5.9345
 IR Inten    --     28.9611                98.1512                21.0568

                     79                     80                     81
                      A                      A                      A
 Frequencies --   3112.5681              3114.3954              3115.6565
 Red. masses --      1.0948                 1.0974                 1.0934
 Frc consts  --      6.2490                 6.2713                 6.2537
 IR Inten    --    102.9324                24.9447                 0.3464

                     82                     83                     84
                      A                      A                      A
 Frequencies --   3120.1327              3121.9754              3130.2134
 Red. masses --      1.1015                 1.1033                 1.0997
 Frc consts  --      6.3182                 6.3360                 6.3485
 IR Inten    --     73.4758                53.9076                43.1783

                     85                     86                     87
                      A                      A                      A
 Frequencies --   3132.2602              3134.8853              3135.2820
 Red. masses --      1.1023                 1.0991                 1.0955
 Frc consts  --      6.3717                 6.3641                 6.3450
 IR Inten    --     36.8157                51.3808                33.2643

 - Thermochemistry -
 -------------------
 Temperature   298.150 Kelvin.  Pressure   1.00000 Atm.
 Atom     1 has atomic number  6 and mass  12.00000

 Molecular mass:   186.12559 amu.
 Principal axes and moments of inertia in atomic units:
                           1         2         3
     Eigenvalues --   977.161513926.118294262.23098
           X            0.99989   0.01057  -0.01024
           Y           -0.01059   0.99994  -0.00197
           Z            0.01022   0.00208   0.99995
 This molecule is an asymmetric top.
 Rotational symmetry number  1.
 Warning -- assumption of classical behavior for rotation
           may cause significant error
 Rotational temperatures (Kelvin)      0.08864     0.02206     0.02032
 Rotational constants (GHZ):           1.84692     0.45968     0.42343
 Zero-point vibrational energy     738474.2 (Joules/Mol)
                                  176.49957 (Kcal/Mol)
 Warning -- explicit consideration of  17 degrees of freedom as
           vibrations may cause significant error
 Vibrational temperatures:     82.73   132.97   150.99   232.12   256.80
          (Kelvin)            332.50   383.34   437.76   480.92   527.20
                              550.82   626.61   633.08   667.08   695.44
                              773.97   821.71   948.03  1016.37  1182.81
                             1203.54  1210.05  1272.71  1279.71  1288.82
                             1313.87  1337.06  1365.78  1415.40  1432.24
                             1460.24  1505.67  1517.63  1528.45  1546.10
                             1604.53  1644.53  1660.79  1666.42  1696.36
                             1718.19  1741.81  1753.00  1776.06  1804.02
                             1856.92  1882.65  1905.66  1915.79  1936.12
                             1960.98  1966.91  1991.29  1997.05  2004.73
                             2016.75  2021.53  2037.50  2042.20  2054.40
                             2067.61  2122.21  2132.95  2134.91  2151.72
                             2158.98  2162.75  2172.38  2183.18  4343.74
                             4379.02  4400.82  4405.71  4409.89  4417.76
                             4420.60  4421.23  4429.30  4478.29  4480.92
                             4482.73  4489.18  4491.83  4503.68  4506.62
                             4510.40  4510.97

 Zero-point correction=                           0.281270 (Hartree/Particle)
 Thermal correction to Energy=                    0.292812
 Thermal correction to Enthalpy=                  0.293756
 Thermal correction to Gibbs Free Energy=         0.243857
 Sum of electronic and zero-point Energies=           -617.220331
 Sum of electronic and thermal Energies=              -617.208789
 Sum of electronic and thermal Enthalpies=            -617.207845
 Sum of electronic and thermal Free Energies=         -617.257744

                     E (Thermal)             CV                S
                      KCal/Mol        Cal/Mol-Kelvin    Cal/Mol-Kelvin
 Total                  183.742             46.571            105.022
 Electronic               0.000              0.000              0.000
 Translational            0.889              2.981             41.570
 Rotational               0.889              2.981             31.170
 Vibrational            181.965             40.610             32.282
 Vibration     1          0.596              1.975              4.541
 Vibration     2          0.602              1.955              3.608
 Vibration     3          0.605              1.945              3.360
 Vibration     4          0.622              1.890              2.534
 Vibration     5          0.629              1.869              2.344
 Vibration     6          0.653              1.793              1.870
 Vibration     7          0.672              1.735              1.619
 Vibration     8          0.695              1.666              1.393
 Vibration     9          0.716              1.607              1.239
 Vibration    10          0.739              1.541              1.095
 Vibration    11          0.752              1.507              1.028
 Vibration    12          0.796              1.393              0.841
 Vibration    13          0.800              1.383              0.827
 Vibration    14          0.821              1.331              0.756
 Vibration    15          0.840              1.287              0.701
 Vibration    16          0.893              1.166              0.570
 Vibration    17          0.927              1.094              0.502

 Optimization completed.
    -- Stationary point found.
 Normal termination of Gaussian 16 at Sun Nov  4 22:51:42 2018.
