 Gaussian 16, Revision A.03,
 Gaussian 16:  ES64L-G16RevA.03 25-Dec-2016

 ----------------------------------------------------------------------
 #M062X/6-311++G(2d,2p) opt=ModRedundant freq=noraman SCRF=(Solvent=Wat
 er)
 ----------------------------------------------------------------------

 ----------------------------
 L_a1-e4_D_PSI.inp_extract_11
 ----------------------------
 Symbolic Z-matrix:
 Charge =  0 Multiplicity = 1

 SCF Done:  E(RM062X) =  -617.498485737     A.U. after   13 cycles
 SCF Done:  E(RM062X) =  -617.500209202     A.U. after   11 cycles
 SCF Done:  E(RM062X) =  -617.500697933     A.U. after   11 cycles
 SCF Done:  E(RM062X) =  -617.500906235     A.U. after   10 cycles
 SCF Done:  E(RM062X) =  -617.500928438     A.U. after   10 cycles
 SCF Done:  E(RM062X) =  -617.500949367     A.U. after    9 cycles
 SCF Done:  E(RM062X) =  -617.500950683     A.U. after    8 cycles
 SCF Done:  E(RM062X) =  -617.500950933     A.U. after    7 cycles
 Optimization completed.
    -- Stationary point found.
 Normal termination of Gaussian 16 at Sun Nov  4 22:05:33 2018.

 ----------------------------------------------------------------------
 #N Geom=AllCheck Guess=TCheck SCRF=Check GenChk RM062X/6-311++G(2d,2p)
  Freq
 ----------------------------------------------------------------------

 Structure from the checkpoint file:  "L_a1-e4_D_PSI.inp_extract_11.chk"
 ----------------------------
 L_a1-e4_D_PSI.inp_extract_11
 ----------------------------
 Charge =  0 Multiplicity = 1

                         Standard orientation:
 ---------------------------------------------------------------------
 Center     Atomic      Atomic             Coordinates (Angstroms)
 Number     Number       Type             X           Y           Z
 ---------------------------------------------------------------------
      1          6           0        1.888651    1.417278    0.420010
      2          8           0        1.172508    0.391901    1.111500
      3          6           0        3.292946   -0.296693   -0.707825
      4          8           0       -2.715123    1.289292   -0.613818
      5          6           0        1.103917   -0.832979    0.416861
      6          6           0        2.483853   -1.352727    0.041546
      7          6           0       -3.283843   -0.905058    0.264522
      8          8           0        0.353012   -0.739201   -0.768760
      9          6           0       -1.798152   -1.257592    0.366094
     10          6           0       -3.469870    0.600575    0.374867
     11          6           0       -1.037418   -0.438550   -0.667947
     12          6           0       -1.323913    1.050066   -0.471604
     13          6           0        3.313332    0.993516    0.109199
     14          1           0        1.366120    1.666977   -0.507178
     15          1           0        1.857954    2.285637    1.074447
     16          1           0        2.835597   -0.104063   -1.680408
     17          1           0        4.304265   -0.658678   -0.889684
     18          1           0        0.619747   -1.515675    1.114857
     19          1           0        2.995685   -1.615186    0.969337
     20          1           0        2.366855   -2.263431   -0.544056
     21          1           0       -3.850874   -1.400744    1.052591
     22          1           0       -3.683137   -1.242808   -0.693956
     23          1           0       -1.447774   -1.008409    1.371198
     24          1           0       -1.629827   -2.322878    0.204867
     25          1           0       -4.508506    0.884321    0.219233
     26          1           0       -3.160831    0.945076    1.369423
     27          1           0       -1.429280   -0.699197   -1.654193
     28          1           0       -0.822442    1.634772   -1.240764
     29          1           0       -0.983124    1.383060    0.513196
     30          1           0        3.816799    1.796176   -0.430330
     31          1           0        3.852578    0.832092    1.045704
 ---------------------------------------------------------------------

 SCF Done:  E(RM062X) =  -617.500950933     A.U. after    1 cycles

 The electronic state is 1-A.
 Alpha  occ. eigenvalues --  -19.63372 -19.63067 -19.63051 -10.63459 -10.58862
 Alpha  occ. eigenvalues --  -10.58069 -10.57867 -10.57782 -10.53440 -10.53384
 Alpha  occ. eigenvalues --  -10.53060 -10.52997 -10.52907  -1.19950  -1.16493
 Alpha  occ. eigenvalues --   -1.13443  -0.91041  -0.89794  -0.87449  -0.84500
 Alpha  occ. eigenvalues --   -0.75038  -0.74121  -0.72998  -0.70776  -0.66988
 Alpha  occ. eigenvalues --   -0.62524  -0.60179  -0.58770  -0.56822  -0.56058
 Alpha  occ. eigenvalues --   -0.53645  -0.53304  -0.52111  -0.50922  -0.49743
 Alpha  occ. eigenvalues --   -0.49378  -0.46547  -0.46177  -0.45591  -0.45039
 Alpha  occ. eigenvalues --   -0.44111  -0.42788  -0.40590  -0.40362  -0.39199
 Alpha  occ. eigenvalues --   -0.38569  -0.38092  -0.36449  -0.35240  -0.33324
 Alpha  occ. eigenvalues --   -0.31759
 Alpha virt. eigenvalues --   -0.00079   0.00778   0.00830   0.01016   0.02230
 Alpha virt. eigenvalues --    0.02511   0.02653   0.03452   0.03549   0.04417
 Alpha virt. eigenvalues --    0.04703   0.04958   0.05609   0.05937   0.07151

 Mulliken charges:
               1
     1  C   -0.060817
     2  O   -0.276607
     3  C   -0.270832
     4  O   -0.349867
     5  C   -0.176416
     6  C   -0.426221
     7  C   -0.437740
     8  O   -0.303728
     9  C   -0.106734
    10  C   -0.134475
    11  C   -0.057904
    12  C   -0.456320
    13  C   -0.434605
    14  H    0.122058
    15  H    0.211098
    16  H    0.176479
    17  H    0.186888
    18  H    0.246861
    19  H    0.193550
    20  H    0.186821
    21  H    0.171059
    22  H    0.173991
    23  H    0.213641
    24  H    0.191045
    25  H    0.214456
    26  H    0.129727
    27  H    0.257784
    28  H    0.225427
    29  H    0.252183
    30  H    0.173539
    31  H    0.165659
 Sum of Mulliken charges =  -0.00000

 Dipole moment (field-independent basis, Debye):
    X=              0.8647    Y=             -1.3221    Z=              1.1091  Tot=              1.9302
 Quadrupole moment (field-independent basis, Debye-Ang):
   XX=            -73.3960   YY=            -79.2427   ZZ=            -83.6802
   XY=              6.3187   XZ=             -4.6630   YZ=             -0.4654

  Exact polarizability: 176.288   2.142 159.141  -1.411  -0.461 148.535
 Approx polarizability: 147.237   1.310 141.939   0.495  -0.695 143.017

                      1                      2                      3
                      A                      A                      A
 Frequencies --     15.1012                98.3236               104.5558
 Red. masses --      3.4967                 3.9167                 3.2701
 Frc consts  --      0.0005                 0.0223                 0.0211
 IR Inten    --      1.3920                 0.8652                 2.0132

                      4                      5                      6
                      A                      A                      A
 Frequencies --    149.4355               173.2858               230.1182
 Red. masses --      3.1742                 3.0748                 3.4927
 Frc consts  --      0.0418                 0.0544                 0.1090
 IR Inten    --      1.9736                 0.8362                 6.1312

                      7                      8                      9
                      A                      A                      A
 Frequencies --    260.7143               300.3746               329.0269
 Red. masses --      2.0437                 2.1470                 3.2603
 Frc consts  --      0.0818                 0.1141                 0.2080
 IR Inten    --      5.4297                 1.8343                15.0542

                     10                     11                     12
                      A                      A                      A
 Frequencies --    364.7575               385.4605               430.4254
 Red. masses --      2.2913                 2.5469                 2.9358
 Frc consts  --      0.1796                 0.2230                 0.3205
 IR Inten    --     19.7777                 5.0379                11.8598

                     13                     14                     15
                      A                      A                      A
 Frequencies --    438.7265               461.7119               483.3252
 Red. masses --      3.1088                 3.6130                 2.9536
 Frc consts  --      0.3526                 0.4538                 0.4065
 IR Inten    --      1.8045                 0.8510                 2.1001

                     16                     17                     18
                      A                      A                      A
 Frequencies --    540.5533               569.0782               659.8690
 Red. masses --      2.0834                 2.0678                 4.8001
 Frc consts  --      0.3587                 0.3946                 1.2314
 IR Inten    --      2.7005                15.7070                 2.6851

                     19                     20                     21
                      A                      A                      A
 Frequencies --    706.3286               822.8888               836.0721
 Red. masses --      2.8023                 1.9249                 1.7062
 Frc consts  --      0.8237                 0.7679                 0.7027
 IR Inten    --      1.8892                 2.1623                 1.4634

                     22                     23                     24
                      A                      A                      A
 Frequencies --    841.5477               880.2809               888.0408
 Red. masses --      3.3054                 1.3910                 2.4664
 Frc consts  --      1.3792                 0.6351                 1.1460
 IR Inten    --      9.1265                10.2663                 4.1751

                     25                     26                     27
                      A                      A                      A
 Frequencies --    895.0021               911.5795               929.3945
 Red. masses --      2.3529                 2.3603                 1.7422
 Frc consts  --      1.1105                 1.1556                 0.8866
 IR Inten    --     20.7325                26.7299                23.9276

                     28                     29                     30
                      A                      A                      A
 Frequencies --    947.2776               981.7101               995.4943
 Red. masses --      2.4344                 1.7326                 1.7811
 Frc consts  --      1.2870                 0.9838                 1.0400
 IR Inten    --     42.6962                39.7516                10.2205

                     31                     32                     33
                      A                      A                      A
 Frequencies --   1014.1460              1045.8775              1050.5075
 Red. masses --      2.0275                 2.2401                 1.7843
 Frc consts  --      1.2286                 1.4437                 1.1602
 IR Inten    --     50.9106                83.5416                 8.1813

                     34                     35                     36
                      A                      A                      A
 Frequencies --   1064.2414              1073.5166              1118.0172
 Red. masses --      1.5882                 2.1243                 4.1023
 Frc consts  --      1.0598                 1.4424                 3.0212
 IR Inten    --     68.4419                33.4781               245.1824

                     37                     38                     39
                      A                      A                      A
 Frequencies --   1143.3748              1154.2545              1157.2589
 Red. masses --      3.0150                 2.5326                 2.5132
 Frc consts  --      2.3223                 1.9880                 1.9831
 IR Inten    --     68.6360                58.6935                36.3611

                     40                     41                     42
                      A                      A                      A
 Frequencies --   1176.5623              1194.4588              1210.4699
 Red. masses --      3.6996                 2.2875                 1.4023
 Frc consts  --      3.0174                 1.9229                 1.2106
 IR Inten    --    208.2347                52.4430                12.6196

                     43                     44                     45
                      A                      A                      A
 Frequencies --   1216.0825              1235.0332              1253.0175
 Red. masses --      1.4943                 1.6360                 1.5898
 Frc consts  --      1.3020                 1.4702                 1.4706
 IR Inten    --     23.3225                53.3746                15.6122

                     46                     47                     48
                      A                      A                      A
 Frequencies --   1289.6355              1307.4835              1322.7406
 Red. masses --      1.2137                 1.1947                 1.1587
 Frc consts  --      1.1893                 1.2033                 1.1944
 IR Inten    --     16.9710                10.9922                 9.5123

                     49                     50                     51
                      A                      A                      A
 Frequencies --   1329.6611              1344.3114              1362.1255
 Red. masses --      1.2794                 1.2793                 1.3748
 Frc consts  --      1.3327                 1.3621                 1.5029
 IR Inten    --     14.1331                 7.6255                 3.2251

                     52                     53                     54
                      A                      A                      A
 Frequencies --   1372.0315              1382.0173              1386.2756
 Red. masses --      1.2846                 1.4131                 1.4596
 Frc consts  --      1.4247                 1.5902                 1.6527
 IR Inten    --     18.7727                 2.4084                 0.7515

                     55                     56                     57
                      A                      A                      A
 Frequencies --   1393.8151              1400.5950              1405.2153
 Red. masses --      1.7046                 1.3727                 1.2537
 Frc consts  --      1.9511                 1.5866                 1.4586
 IR Inten    --      6.8357                 6.9843                10.0743

                     58                     59                     60
                      A                      A                      A
 Frequencies --   1416.7420              1420.0296              1429.8402
 Red. masses --      1.3877                 1.3466                 1.3462
 Frc consts  --      1.6411                 1.5998                 1.6215
 IR Inten    --      7.5138                19.6132                 3.5372

                     61                     62                     63
                      A                      A                      A
 Frequencies --   1438.5636              1476.0274              1483.5902
 Red. masses --      1.3562                 1.1030                 1.0873
 Frc consts  --      1.6536                 1.4158                 1.4100
 IR Inten    --     23.8646                 5.7118                 8.2104

                     64                     65                     66
                      A                      A                      A
 Frequencies --   1484.2516              1495.5964              1497.0872
 Red. masses --      1.0930                 1.1105                 1.1120
 Frc consts  --      1.4187                 1.4635                 1.4684
 IR Inten    --      7.8396                13.2998                 6.5465

                     67                     68                     69
                      A                      A                      A
 Frequencies --   1504.0474              1509.0048              1518.5164
 Red. masses --      1.0834                 1.0938                 1.0982
 Frc consts  --      1.4440                 1.4675                 1.4920
 IR Inten    --      1.4171                 2.8446                 8.7688

                     70                     71                     72
                      A                      A                      A
 Frequencies --   3020.7077              3053.7631              3056.9368
 Red. masses --      1.0705                 1.0671                 1.0653
 Frc consts  --      5.7550                 5.8630                 5.8656
 IR Inten    --     70.2256                21.8603                 5.0293

                     73                     74                     75
                      A                      A                      A
 Frequencies --   3060.6883              3066.7891              3069.9971
 Red. masses --      1.0673                 1.0629                 1.0700
 Frc consts  --      5.8906                 5.8901                 5.9416
 IR Inten    --     34.5059                63.0800                 4.5425

                     76                     77                     78
                      A                      A                      A
 Frequencies --   3071.4952              3071.9732              3077.5112
 Red. masses --      1.0692                 1.0634                 1.0628
 Frc consts  --      5.9428                 5.9127                 5.9309
 IR Inten    --     81.4536                43.5684                19.2015

                     79                     80                     81
                      A                      A                      A
 Frequencies --   3105.8279              3113.9477              3114.8084
 Red. masses --      1.0870                 1.0986                 1.0976
 Frc consts  --      6.1778                 6.2767                 6.2743
 IR Inten    --     91.9919                14.4598                29.6471

                     82                     83                     84
                      A                      A                      A
 Frequencies --   3119.9394              3121.3376              3131.7267
 Red. masses --      1.1022                 1.1029                 1.1022
 Frc consts  --      6.3214                 6.3310                 6.3691
 IR Inten    --     67.1040                60.5411                37.1660

                     85                     86                     87
                      A                      A                      A
 Frequencies --   3132.7494              3134.3245              3136.4430
 Red. masses --      1.0982                 1.0975                 1.1015
 Frc consts  --      6.3499                 6.3522                 6.3843
 IR Inten    --     43.0646                23.0684                61.5634

 - Thermochemistry -
 -------------------
 Temperature   298.150 Kelvin.  Pressure   1.00000 Atm.
 Atom     1 has atomic number  6 and mass  12.00000

 Molecular mass:   186.12559 amu.
 Principal axes and moments of inertia in atomic units:
                           1         2         3
     Eigenvalues --   962.791163939.251154355.05771
           X            0.99990   0.01043  -0.00928
           Y           -0.01049   0.99992  -0.00673
           Z            0.00920   0.00683   0.99993
 This molecule is an asymmetric top.
 Rotational symmetry number  1.
 Warning -- assumption of classical behavior for rotation
           may cause significant error
 Rotational temperatures (Kelvin)      0.08996     0.02199     0.01989
 Rotational constants (GHZ):           1.87449     0.45814     0.41440
 Zero-point vibrational energy     737901.2 (Joules/Mol)
                                  176.36262 (Kcal/Mol)
 Warning -- explicit consideration of  17 degrees of freedom as
           vibrations may cause significant error
 Vibrational temperatures:     21.73   141.47   150.43   215.00   249.32
          (Kelvin)            331.09   375.11   432.17   473.40   524.80
                              554.59   619.29   631.23   664.30   695.40
                              777.74   818.78   949.40  1016.25  1183.95
                             1202.92  1210.80  1266.53  1277.69  1287.71
                             1311.56  1337.19  1362.92  1412.46  1432.29
                             1459.13  1504.78  1511.45  1531.21  1544.55
                             1608.58  1645.06  1660.71  1665.04  1692.81
                             1718.56  1741.60  1749.67  1776.94  1802.81
                             1855.50  1881.18  1903.13  1913.09  1934.16
                             1959.79  1974.05  1988.41  1994.54  2005.39
                             2015.14  2021.79  2038.38  2043.11  2057.22
                             2069.77  2123.67  2134.56  2135.51  2151.83
                             2153.97  2163.99  2171.12  2184.81  4346.12
                             4393.68  4398.25  4403.65  4412.43  4417.04
                             4419.20  4419.88  4427.85  4468.59  4480.28
                             4481.51  4488.90  4490.91  4505.86  4507.33
                             4509.59  4512.64

 Zero-point correction=                           0.281052 (Hartree/Particle)
 Thermal correction to Energy=                    0.292731
 Thermal correction to Enthalpy=                  0.293676
 Thermal correction to Gibbs Free Energy=         0.242414
 Sum of electronic and zero-point Energies=           -617.219899
 Sum of electronic and thermal Energies=              -617.208220
 Sum of electronic and thermal Enthalpies=            -617.207275
 Sum of electronic and thermal Free Energies=         -617.258537

                     E (Thermal)             CV                S
                      KCal/Mol        Cal/Mol-Kelvin    Cal/Mol-Kelvin
 Total                  183.692             46.664            107.890
 Electronic               0.000              0.000              0.000
 Translational            0.889              2.981             41.570
 Rotational               0.889              2.981             31.180
 Vibrational            181.914             40.702             35.140
 Vibration     1          0.593              1.986              7.192
 Vibration     2          0.604              1.950              3.487
 Vibration     3          0.605              1.946              3.368
 Vibration     4          0.618              1.903              2.679
 Vibration     5          0.627              1.875              2.400
 Vibration     6          0.652              1.795              1.878
 Vibration     7          0.669              1.745              1.657
 Vibration     8          0.693              1.673              1.415
 Vibration     9          0.712              1.618              1.265
 Vibration    10          0.738              1.545              1.102
 Vibration    11          0.754              1.501              1.018
 Vibration    12          0.792              1.404              0.857
 Vibration    13          0.799              1.386              0.831
 Vibration    14          0.819              1.335              0.761
 Vibration    15          0.840              1.287              0.701
 Vibration    16          0.896              1.160              0.564
 Vibration    17          0.925              1.098              0.506

 Optimization completed.
    -- Stationary point found.
 Normal termination of Gaussian 16 at Sun Nov  4 23:01:08 2018.
