 Gaussian 16, Revision A.03,
 Gaussian 16:  ES64L-G16RevA.03 25-Dec-2016

 ----------------------------------------------------------------------
 #M062X/6-311++G(2d,2p) opt=ModRedundant freq=noraman SCRF=(Solvent=Wat
 er)
 ----------------------------------------------------------------------

 ---------------------------
 L_a1-e4_D_PSI.inp_extract_7
 ---------------------------
 Symbolic Z-matrix:
 Charge =  0 Multiplicity = 1

 SCF Done:  E(RM062X) =  -617.495802587     A.U. after   12 cycles
 SCF Done:  E(RM062X) =  -617.497200600     A.U. after   11 cycles
 SCF Done:  E(RM062X) =  -617.497657219     A.U. after   11 cycles
 SCF Done:  E(RM062X) =  -617.497900302     A.U. after   10 cycles
 SCF Done:  E(RM062X) =  -617.497932834     A.U. after    9 cycles
 SCF Done:  E(RM062X) =  -617.497935105     A.U. after    9 cycles
 SCF Done:  E(RM062X) =  -617.497935301     A.U. after    7 cycles
 Optimization completed.
    -- Stationary point found.
 Normal termination of Gaussian 16 at Sun Nov  4 21:55:05 2018.

 ----------------------------------------------------------------------
 #N Geom=AllCheck Guess=TCheck SCRF=Check GenChk RM062X/6-311++G(2d,2p)
  Freq
 ----------------------------------------------------------------------

 Structure from the checkpoint file:  "L_a1-e4_D_PSI.inp_extract_7.chk"
 ---------------------------
 L_a1-e4_D_PSI.inp_extract_7
 ---------------------------
 Charge =  0 Multiplicity = 1

                         Standard orientation:
 ---------------------------------------------------------------------
 Center     Atomic      Atomic             Coordinates (Angstroms)
 Number     Number       Type             X           Y           Z
 ---------------------------------------------------------------------
      1          6           0       -2.229721   -1.351860   -0.486956
      2          8           0       -1.430845   -1.051595    0.658236
      3          6           0       -3.235681    0.928452   -0.376680
      4          8           0        2.710239   -1.382350   -0.080120
      5          6           0       -1.084452    0.311840    0.759081
      6          6           0       -2.323423    1.192815    0.820530
      7          6           0        3.427171    0.908824   -0.392392
      8          8           0       -0.323695    0.749861   -0.336848
      9          6           0        1.989975    1.377822   -0.178105
     10          6           0        3.649306   -0.402401    0.340968
     11          6           0        1.008100    0.263014   -0.516850
     12          6           0        1.374593   -1.022658    0.230698
     13          6           0       -3.531390   -0.567682   -0.472618
     14          1           0       -1.660074   -1.128115   -1.393833
     15          1           0       -2.406495   -2.424338   -0.447351
     16          1           0       -2.742384    1.261677   -1.291549
     17          1           0       -4.158485    1.499158   -0.278159
     18          1           0       -0.508723    0.385335    1.683782
     19          1           0       -2.849701    0.954184    1.746453
     20          1           0       -2.014289    2.235994    0.868640
     21          1           0        4.136791    1.656993   -0.038856
     22          1           0        3.613783    0.752408   -1.457025
     23          1           0        1.843505    1.656405    0.870637
     24          1           0        1.761704    2.253203   -0.785533
     25          1           0        4.634339   -0.815734    0.134938
     26          1           0        3.554638   -0.252241    1.423490
     27          1           0        1.093248    0.034832   -1.583193
     28          1           0        0.746148   -1.850794   -0.080231
     29          1           0        1.271417   -0.892317    1.313988
     30          1           0       -4.103191   -0.800046   -1.371531
     31          1           0       -4.124694   -0.882933    0.389139
 ---------------------------------------------------------------------

 SCF Done:  E(RM062X) =  -617.497935301     A.U. after    1 cycles

 The electronic state is 1-A.
 Alpha  occ. eigenvalues --  -19.63131 -19.63129 -19.62895 -10.63614 -10.58913
 Alpha  occ. eigenvalues --  -10.58141 -10.58015 -10.57781 -10.53186 -10.53092
 Alpha  occ. eigenvalues --  -10.53027 -10.52954 -10.52861  -1.19925  -1.16583
 Alpha  occ. eigenvalues --   -1.13318  -0.90962  -0.89672  -0.87150  -0.84707
 Alpha  occ. eigenvalues --   -0.74948  -0.74179  -0.72799  -0.70823  -0.66281
 Alpha  occ. eigenvalues --   -0.63119  -0.60264  -0.58851  -0.56556  -0.55572
 Alpha  occ. eigenvalues --   -0.54416  -0.53360  -0.51881  -0.50421  -0.50154
 Alpha  occ. eigenvalues --   -0.48931  -0.46772  -0.45847  -0.45429  -0.44699
 Alpha  occ. eigenvalues --   -0.43812  -0.42465  -0.41455  -0.40300  -0.39568
 Alpha  occ. eigenvalues --   -0.38471  -0.37862  -0.36721  -0.34047  -0.33006
 Alpha  occ. eigenvalues --   -0.32232
 Alpha virt. eigenvalues --   -0.00065   0.00727   0.00796   0.01140   0.02127
 Alpha virt. eigenvalues --    0.02500   0.02591   0.03330   0.03671   0.04350
 Alpha virt. eigenvalues --    0.04611   0.04830   0.05524   0.05930   0.07083

 Mulliken charges:
               1
     1  C   -0.047586
     2  O   -0.271378
     3  C   -0.269785
     4  O   -0.361969
     5  C   -0.059457
     6  C   -0.504055
     7  C   -0.379549
     8  O   -0.280183
     9  C   -0.106718
    10  C   -0.156981
    11  C   -0.281173
    12  C   -0.243952
    13  C   -0.464725
    14  H    0.140249
    15  H    0.209879
    16  H    0.176491
    17  H    0.185929
    18  H    0.256052
    19  H    0.196061
    20  H    0.183214
    21  H    0.174897
    22  H    0.165458
    23  H    0.175836
    24  H    0.178926
    25  H    0.212164
    26  H    0.129562
    27  H    0.258389
    28  H    0.219946
    29  H    0.229939
    30  H    0.174214
    31  H    0.160308
 Sum of Mulliken charges =  -0.00000

 Dipole moment (field-independent basis, Debye):
    X=             -0.4749    Y=              2.0092    Z=              0.3555  Tot=              2.0949
 Quadrupole moment (field-independent basis, Debye-Ang):
   XX=            -72.1120   YY=            -84.3397   ZZ=            -79.1320
   XY=              6.1074   XZ=              2.9276   YZ=              2.7961

  Exact polarizability: 177.245   2.062 157.452  -0.163   2.048 150.656
 Approx polarizability: 147.391   1.450 142.081  -0.914   1.221 143.016

 ******    1 imaginary frequencies (negative Signs) ******

                      1                      2                      3
                      A                      A                      A
 Frequencies --    -51.5472                57.8704               108.2044
 Red. masses --      3.4460                 4.2441                 3.4428
 Frc consts  --      0.0054                 0.0084                 0.0237
 IR Inten    --      0.7166                 1.0764                 2.0943

                      4                      5                      6
                      A                      A                      A
 Frequencies --    127.7209               205.2233               229.6221
 Red. masses --      3.1483                 2.9722                 3.4288
 Frc consts  --      0.0303                 0.0738                 0.1065
 IR Inten    --      0.5112                 4.2796                 0.3634

                      7                      8                      9
                      A                      A                      A
 Frequencies --    246.6622               269.7420               326.5554
 Red. masses --      2.0288                 2.5614                 2.8260
 Frc consts  --      0.0727                 0.1098                 0.1776
 IR Inten    --      4.6878                 3.7590                13.4590

                     10                     11                     12
                      A                      A                      A
 Frequencies --    370.0605               384.6910               429.7426
 Red. masses --      2.2970                 2.2221                 2.8559
 Frc consts  --      0.1853                 0.1938                 0.3108
 IR Inten    --     14.5875                11.1238                 7.0535

                     13                     14                     15
                      A                      A                      A
 Frequencies --    441.0220               459.9613               487.9142
 Red. masses --      3.3544                 3.3970                 2.7625
 Frc consts  --      0.3844                 0.4234                 0.3875
 IR Inten    --      4.5042                 0.3297                 3.4613

                     16                     17                     18
                      A                      A                      A
 Frequencies --    536.0748               575.5910               640.5487
 Red. masses --      2.0819                 2.1857                 4.6296
 Frc consts  --      0.3525                 0.4266                 1.1192
 IR Inten    --      0.6329                14.2540                 2.8124

                     19                     20                     21
                      A                      A                      A
 Frequencies --    707.9859               818.9137               834.7344
 Red. masses --      2.7946                 2.0838                 1.6057
 Frc consts  --      0.8253                 0.8234                 0.6592
 IR Inten    --      1.5553                 1.8940                 2.0730

                     22                     23                     24
                      A                      A                      A
 Frequencies --    840.6104               873.3701               888.7752
 Red. masses --      3.3983                 1.4075                 2.3182
 Frc consts  --      1.4148                 0.6326                 1.0789
 IR Inten    --      9.1507                11.7023                 6.3624

                     25                     26                     27
                      A                      A                      A
 Frequencies --    897.2243               910.0510               926.6425
 Red. masses --      2.5481                 2.3771                 1.8076
 Frc consts  --      1.2085                 1.1599                 0.9145
 IR Inten    --     31.0974                21.6594                28.0051

                     28                     29                     30
                      A                      A                      A
 Frequencies --    943.3882               978.2987               999.6177
 Red. masses --      2.1622                 1.6585                 2.0608
 Frc consts  --      1.1338                 0.9352                 1.2132
 IR Inten    --     37.6596                40.8296                29.8102

                     31                     32                     33
                      A                      A                      A
 Frequencies --   1009.1243              1040.7130              1052.8084
 Red. masses --      1.9896                 2.2578                 1.6950
 Frc consts  --      1.1937                 1.4408                 1.1069
 IR Inten    --     39.8474                62.4811                29.7042

                     34                     35                     36
                      A                      A                      A
 Frequencies --   1063.5644              1072.4650              1118.2189
 Red. masses --      1.5383                 2.2300                 4.4032
 Frc consts  --      1.0252                 1.5112                 3.2439
 IR Inten    --     71.7583                21.1382               333.8469

                     37                     38                     39
                      A                      A                      A
 Frequencies --   1145.4218              1150.4242              1168.1563
 Red. masses --      2.8935                 2.4522                 2.4787
 Frc consts  --      2.2367                 1.9121                 1.9929
 IR Inten    --     41.5902               114.8691                26.3653

                     40                     41                     42
                      A                      A                      A
 Frequencies --   1178.5113              1188.7629              1210.3843
 Red. masses --      3.7539                 2.6473                 1.4793
 Frc consts  --      3.0718                 2.2041                 1.2769
 IR Inten    --    128.3878                59.8547                22.0710

                     43                     44                     45
                      A                      A                      A
 Frequencies --   1213.1933              1233.7043              1251.2903
 Red. masses --      1.4115                 1.6386                 1.5094
 Frc consts  --      1.2240                 1.4694                 1.3924
 IR Inten    --     35.2848                48.7177                18.2038

                     46                     47                     48
                      A                      A                      A
 Frequencies --   1288.1268              1307.7260              1320.2698
 Red. masses --      1.2099                 1.1670                 1.1541
 Frc consts  --      1.1828                 1.1759                 1.1853
 IR Inten    --     14.1209                19.5671                 8.8806

                     49                     50                     51
                      A                      A                      A
 Frequencies --   1336.9065              1347.3770              1360.3875
 Red. masses --      1.3048                 1.3031                 1.3318
 Frc consts  --      1.3740                 1.3938                 1.4522
 IR Inten    --      7.0679                 3.4943                 3.7595

                     52                     53                     54
                      A                      A                      A
 Frequencies --   1368.6353              1383.8532              1385.3443
 Red. masses --      1.2579                 1.4485                 1.3896
 Frc consts  --      1.3883                 1.6344                 1.5713
 IR Inten    --     15.6579                 0.4391                 6.8480

                     55                     56                     57
                      A                      A                      A
 Frequencies --   1391.1146              1396.5139              1401.9129
 Red. masses --      1.6296                 1.3164                 1.3863
 Frc consts  --      1.8580                 1.5126                 1.6053
 IR Inten    --      8.8102                41.7475                 2.1335

                     58                     59                     60
                      A                      A                      A
 Frequencies --   1412.7748              1417.1228              1429.6867
 Red. masses --      1.3621                 1.4211                 1.3614
 Frc consts  --      1.6018                 1.6815                 1.6395
 IR Inten    --      9.7771                 7.3520                12.6461

                     61                     62                     63
                      A                      A                      A
 Frequencies --   1439.1787              1476.0801              1480.0697
 Red. masses --      1.3691                 1.1046                 1.0935
 Frc consts  --      1.6707                 1.4180                 1.4113
 IR Inten    --     14.5578                 5.1722                 7.3513

                     64                     65                     66
                      A                      A                      A
 Frequencies --   1481.9564              1491.9841              1494.6177
 Red. masses --      1.0848                 1.1054                 1.1105
 Frc consts  --      1.4037                 1.4498                 1.4616
 IR Inten    --      7.0597                12.0292                14.2617

                     67                     68                     69
                      A                      A                      A
 Frequencies --   1498.1939              1507.9115              1511.5693
 Red. masses --      1.0925                 1.0932                 1.1007
 Frc consts  --      1.4449                 1.4645                 1.4817
 IR Inten    --      0.7976                 3.6746                 6.6227

                     70                     71                     72
                      A                      A                      A
 Frequencies --   3019.7111              3032.9258              3043.6456
 Red. masses --      1.0703                 1.0715                 1.0705
 Frc consts  --      5.7504                 5.8074                 5.8428
 IR Inten    --     71.0356                26.8423                 6.5471

                     73                     74                     75
                      A                      A                      A
 Frequencies --   3050.6385              3058.7158              3063.2148
 Red. masses --      1.0692                 1.0798                 1.0631
 Frc consts  --      5.8627                 5.9520                 5.8773
 IR Inten    --     67.4914                82.7419                36.9595

                     76                     77                     78
                      A                      A                      A
 Frequencies --   3069.4064              3072.9929              3075.9278
 Red. masses --      1.0621                 1.0643                 1.0677
 Frc consts  --      5.8958                 5.9218                 5.9516
 IR Inten    --     44.3080                34.9514                 2.9772

                     79                     80                     81
                      A                      A                      A
 Frequencies --   3086.0392              3113.4064              3115.2913
 Red. masses --      1.0783                 1.0980                 1.0961
 Frc consts  --      6.0508                 6.2707                 6.2675
 IR Inten    --     92.1961                34.9078                41.0314

                     82                     83                     84
                      A                      A                      A
 Frequencies --   3119.3394              3119.7701              3131.4583
 Red. masses --      1.1028                 1.1024                 1.0949
 Frc consts  --      6.3221                 6.3219                 6.3258
 IR Inten    --     65.8042                54.4598                50.1783

                     85                     86                     87
                      A                      A                      A
 Frequencies --   3131.8893              3135.0675              3168.3778
 Red. masses --      1.1031                 1.0978                 1.0944
 Frc consts  --      6.3751                 6.3573                 6.4730
 IR Inten    --     38.5758                44.8827                24.7534

 - Thermochemistry -
 -------------------
 Temperature   298.150 Kelvin.  Pressure   1.00000 Atm.
 Atom     1 has atomic number  6 and mass  12.00000

 Molecular mass:   186.12559 amu.
 Principal axes and moments of inertia in atomic units:
                           1         2         3
     Eigenvalues --   911.974234160.063674636.48531
           X            0.99996   0.00743   0.00478
           Y           -0.00753   0.99978   0.01939
           Z           -0.00463  -0.01943   0.99980
 This molecule is an asymmetric top.
 Rotational symmetry number  1.
 Warning -- assumption of classical behavior for rotation
           may cause significant error
 Rotational temperatures (Kelvin)      0.09497     0.02082     0.01868
 Rotational constants (GHZ):           1.97894     0.43383     0.38925
    1 imaginary frequencies ignored.
 Zero-point vibrational energy     736604.7 (Joules/Mol)
                                  176.05275 (Kcal/Mol)
 Warning -- explicit consideration of  16 degrees of freedom as
           vibrations may cause significant error
 Vibrational temperatures:     83.26   155.68   183.76   295.27   330.37
          (Kelvin)            354.89   388.10   469.84   532.43   553.48
                              618.30   634.53   661.78   702.00   771.29
                              828.15   921.61  1018.63  1178.23  1201.00
                             1209.45  1256.58  1278.75  1290.91  1309.36
                             1333.23  1357.33  1407.55  1438.23  1451.90
                             1497.35  1514.76  1530.23  1543.04  1608.87
                             1648.01  1655.20  1680.72  1695.61  1710.36
                             1741.47  1745.51  1775.03  1800.33  1853.33
                             1881.53  1899.57  1923.51  1938.58  1957.29
                             1969.16  1991.06  1993.20  2001.50  2009.27
                             2017.04  2032.67  2038.92  2057.00  2070.66
                             2123.75  2129.49  2132.20  2146.63  2150.42
                             2155.57  2169.55  2174.81  4344.69  4363.70
                             4379.13  4389.19  4400.81  4407.28  4416.19
                             4421.35  4425.57  4440.12  4479.50  4482.21
                             4488.03  4488.65  4505.47  4506.09  4510.66
                             4558.59

 Zero-point correction=                           0.280558 (Hartree/Particle)
 Thermal correction to Energy=                    0.291457
 Thermal correction to Enthalpy=                  0.292401
 Thermal correction to Gibbs Free Energy=         0.243925
 Sum of electronic and zero-point Energies=           -617.217377
 Sum of electronic and thermal Energies=              -617.206479
 Sum of electronic and thermal Enthalpies=            -617.205535
 Sum of electronic and thermal Free Energies=         -617.254010

                     E (Thermal)             CV                S
                      KCal/Mol        Cal/Mol-Kelvin    Cal/Mol-Kelvin
 Total                  182.892             44.822            102.026
 Electronic               0.000              0.000              0.000
 Translational            0.889              2.981             41.570
 Rotational               0.889              2.981             31.243
 Vibrational            181.114             38.860             29.213
 Vibration     1          0.596              1.974              4.529
 Vibration     2          0.606              1.943              3.301
 Vibration     3          0.611              1.925              2.980
 Vibration     4          0.640              1.832              2.086
 Vibration     5          0.652              1.796              1.882
 Vibration     6          0.661              1.768              1.754
 Vibration     7          0.674              1.729              1.598
 Vibration     8          0.710              1.622              1.277
 Vibration     9          0.742              1.534              1.080
 Vibration    10          0.754              1.503              1.021
 Vibration    11          0.791              1.405              0.859
 Vibration    12          0.801              1.381              0.823
 Vibration    13          0.818              1.339              0.766
 Vibration    14          0.844              1.277              0.689
 Vibration    15          0.891              1.170              0.574
 Vibration    16          0.932              1.084              0.494

 Optimization completed.
    -- Stationary point found.
 Normal termination of Gaussian 16 at Sun Nov  4 22:53:29 2018.
