 Gaussian 16, Revision A.03,
 Gaussian 16:  ES64L-G16RevA.03 25-Dec-2016

 ----------------------------------------------------------------------
 #M062X/6-311++G(2d,2p) opt=ModRedundant freq=noraman SCRF=(Solvent=Wat
 er)
 ----------------------------------------------------------------------

 ----------------------------
 L_a1-e4_D_PSI.inp_extract_10
 ----------------------------
 Symbolic Z-matrix:
 Charge =  0 Multiplicity = 1

 SCF Done:  E(RM062X) =  -617.498461806     A.U. after   13 cycles
 SCF Done:  E(RM062X) =  -617.500244971     A.U. after   11 cycles
 SCF Done:  E(RM062X) =  -617.500547586     A.U. after   10 cycles
 SCF Done:  E(RM062X) =  -617.500678502     A.U. after    9 cycles
 SCF Done:  E(RM062X) =  -617.500710902     A.U. after   10 cycles
 SCF Done:  E(RM062X) =  -617.500718230     A.U. after    9 cycles
 SCF Done:  E(RM062X) =  -617.500720079     A.U. after    9 cycles
 SCF Done:  E(RM062X) =  -617.500720489     A.U. after    8 cycles
 Optimization completed.
    -- Stationary point found.
 Normal termination of Gaussian 16 at Sun Nov  4 22:04:58 2018.

 ----------------------------------------------------------------------
 #N Geom=AllCheck Guess=TCheck SCRF=Check GenChk RM062X/6-311++G(2d,2p)
  Freq
 ----------------------------------------------------------------------

 Structure from the checkpoint file:  "L_a1-e4_D_PSI.inp_extract_10.chk"
 ----------------------------
 L_a1-e4_D_PSI.inp_extract_10
 ----------------------------
 Charge =  0 Multiplicity = 1

                         Standard orientation:
 ---------------------------------------------------------------------
 Center     Atomic      Atomic             Coordinates (Angstroms)
 Number     Number       Type             X           Y           Z
 ---------------------------------------------------------------------
      1          6           0       -2.198139   -1.452281    0.042786
      2          8           0       -1.333011   -0.763588    0.946735
      3          6           0       -3.277067    0.704714   -0.580198
      4          8           0        2.768110   -1.352756   -0.389168
      5          6           0       -1.038630    0.561826    0.552305
      6          6           0       -2.306458    1.385308    0.383370
      7          6           0        3.358696    0.971386    0.012048
      8          8           0       -0.341885    0.591341   -0.667189
      9          6           0        1.877147    1.328160    0.159523
     10          6           0        3.585072   -0.485328    0.386415
     11          6           0        1.057382    0.327567   -0.647076
     12          6           0        1.389354   -1.091133   -0.183501
     13          6           0       -3.525234   -0.730012   -0.117933
     14          1           0       -1.703799   -1.551336   -0.927616
     15          1           0       -2.330009   -2.446251    0.464498
     16          1           0       -2.849634    0.695196   -1.584844
     17          1           0       -4.210722    1.263992   -0.629472
     18          1           0       -0.424113    0.957856    1.359665
     19          1           0       -2.770537    1.479499    1.366917
     20          1           0       -2.033958    2.383573    0.043602
     21          1           0        3.973481    1.610021    0.646421
     22          1           0        3.677066    1.125666   -1.020975
     23          1           0        1.608446    1.276144    1.216574
     24          1           0        1.677879    2.342365   -0.187527
     25          1           0        4.613757   -0.787173    0.201565
     26          1           0        3.363761   -0.638073    1.449919
     27          1           0        1.355357    0.403305   -1.694727
     28          1           0        0.828922   -1.824639   -0.760658
     29          1           0        1.139699   -1.214204    0.875398
     30          1           0       -4.147101   -1.272864   -0.830395
     31          1           0       -4.046948   -0.724290    0.842197
 ---------------------------------------------------------------------

 SCF Done:  E(RM062X) =  -617.500720489     A.U. after    1 cycles

 The electronic state is 1-A.
 Alpha  occ. eigenvalues --  -19.63356 -19.63050 -19.62799 -10.63476 -10.58911
 Alpha  occ. eigenvalues --  -10.58071 -10.57836 -10.57696 -10.53402 -10.53357
 Alpha  occ. eigenvalues --  -10.53043 -10.52972 -10.52834  -1.19926  -1.16503
 Alpha  occ. eigenvalues --   -1.13370  -0.90961  -0.89757  -0.87231  -0.84583
 Alpha  occ. eigenvalues --   -0.74885  -0.73947  -0.73049  -0.70936  -0.66863
 Alpha  occ. eigenvalues --   -0.62678  -0.60311  -0.58608  -0.56323  -0.56202
 Alpha  occ. eigenvalues --   -0.54012  -0.53396  -0.51659  -0.50958  -0.49677
 Alpha  occ. eigenvalues --   -0.49361  -0.46509  -0.46093  -0.45417  -0.45011
 Alpha  occ. eigenvalues --   -0.43882  -0.42779  -0.40963  -0.40520  -0.39378
 Alpha  occ. eigenvalues --   -0.38488  -0.37957  -0.36272  -0.35242  -0.33142
 Alpha  occ. eigenvalues --   -0.31723
 Alpha virt. eigenvalues --   -0.00040   0.00751   0.00792   0.01110   0.02185
 Alpha virt. eigenvalues --    0.02498   0.02616   0.03446   0.03674   0.04344
 Alpha virt. eigenvalues --    0.04597   0.04847   0.05647   0.05838   0.07246

 Mulliken charges:
               1
     1  C   -0.087245
     2  O   -0.267129
     3  C   -0.267649
     4  O   -0.359543
     5  C   -0.061492
     6  C   -0.421850
     7  C   -0.424576
     8  O   -0.300560
     9  C   -0.060721
    10  C   -0.143027
    11  C   -0.302503
    12  C   -0.303589
    13  C   -0.419091
    14  H    0.129735
    15  H    0.204719
    16  H    0.176395
    17  H    0.186095
    18  H    0.272097
    19  H    0.189460
    20  H    0.177661
    21  H    0.168659
    22  H    0.173624
    23  H    0.180955
    24  H    0.182091
    25  H    0.218685
    26  H    0.133665
    27  H    0.252111
    28  H    0.214182
    29  H    0.223254
    30  H    0.172096
    31  H    0.163490
 Sum of Mulliken charges =   0.00000

 Dipole moment (field-independent basis, Debye):
    X=             -0.5659    Y=              2.1043    Z=              0.8376  Tot=              2.3345
 Quadrupole moment (field-independent basis, Debye-Ang):
   XX=            -72.9196   YY=            -81.1189   ZZ=            -82.0486
   XY=              6.6895   XZ=              4.1392   YZ=              1.8569

  Exact polarizability: 177.262   3.253 159.008   0.780   1.259 148.173
 Approx polarizability: 147.656   2.074 141.553  -0.521   1.096 142.901

 ******    1 imaginary frequencies (negative Signs) ******

                      1                      2                      3
                      A                      A                      A
 Frequencies --    -21.0579                74.4980                98.0518
 Red. masses --      3.4952                 4.0402                 3.3367
 Frc consts  --      0.0009                 0.0132                 0.0189
 IR Inten    --      0.7897                 0.8634                 2.5739

                      4                      5                      6
                      A                      A                      A
 Frequencies --    140.3235               197.3547               226.4353
 Red. masses --      3.0459                 3.0180                 3.6158
 Frc consts  --      0.0353                 0.0693                 0.1092
 IR Inten    --      0.7650                 1.1121                 2.5937

                      7                      8                      9
                      A                      A                      A
 Frequencies --    254.1163               297.6117               319.0910
 Red. masses --      2.0204                 2.1598                 3.1941
 Frc consts  --      0.0769                 0.1127                 0.1916
 IR Inten    --      3.7209                 1.1154                17.7033

                     10                     11                     12
                      A                      A                      A
 Frequencies --    369.0985               397.7884               429.3496
 Red. masses --      2.2879                 2.3929                 3.2132
 Frc consts  --      0.1836                 0.2231                 0.3490
 IR Inten    --     16.5791                 6.2967                13.0460

                     13                     14                     15
                      A                      A                      A
 Frequencies --    439.1520               462.4764               495.9293
 Red. masses --      3.2617                 3.3222                 2.7198
 Frc consts  --      0.3706                 0.4187                 0.3941
 IR Inten    --      2.4132                 0.3550                 2.1851

                     16                     17                     18
                      A                      A                      A
 Frequencies --    543.8900               570.6888               640.3688
 Red. masses --      2.0130                 2.2833                 4.3947
 Frc consts  --      0.3508                 0.4381                 1.0618
 IR Inten    --      1.0728                19.8148                 1.6622

                     19                     20                     21
                      A                      A                      A
 Frequencies --    710.6367               822.9338               836.2142
 Red. masses --      2.8604                 1.9855                 1.6362
 Frc consts  --      0.8511                 0.7922                 0.6741
 IR Inten    --      1.1397                 1.7962                 3.7428

                     22                     23                     24
                      A                      A                      A
 Frequencies --    843.4408               875.0180               888.2119
 Red. masses --      3.3514                 1.4087                 2.4204
 Frc consts  --      1.4047                 0.6355                 1.1251
 IR Inten    --      7.3829                 6.6663                 3.0598

                     25                     26                     27
                      A                      A                      A
 Frequencies --    894.9077               905.7922               929.0030
 Red. masses --      2.4323                 2.2841                 1.7801
 Frc consts  --      1.1477                 1.1041                 0.9052
 IR Inten    --     34.6238                24.6038                27.8600

                     28                     29                     30
                      A                      A                      A
 Frequencies --    945.5577               978.4428               998.1326
 Red. masses --      2.4309                 1.6528                 1.8308
 Frc consts  --      1.2806                 0.9322                 1.0747
 IR Inten    --     50.8952                45.4654                14.9295

                     31                     32                     33
                      A                      A                      A
 Frequencies --   1010.5884              1045.3580              1050.5616
 Red. masses --      2.0545                 2.1657                 1.7489
 Frc consts  --      1.2363                 1.3944                 1.1373
 IR Inten    --     43.3245                74.7505                13.1229

                     34                     35                     36
                      A                      A                      A
 Frequencies --   1063.9056              1071.1187              1121.0013
 Red. masses --      1.5589                 2.2303                 4.4068
 Frc consts  --      1.0396                 1.5076                 3.2627
 IR Inten    --     79.4081                20.9989               307.3167

                     37                     38                     39
                      A                      A                      A
 Frequencies --   1140.4373              1152.4246              1154.1591
 Red. masses --      2.8613                 2.4737                 2.5914
 Frc consts  --      2.1926                 1.9357                 2.0338
 IR Inten    --     33.2358                65.7980                63.9826

                     40                     41                     42
                      A                      A                      A
 Frequencies --   1171.9321              1193.7630              1210.4768
 Red. masses --      3.9651                 2.4145                 1.4200
 Frc consts  --      3.2086                 2.0273                 1.2259
 IR Inten    --    178.0264                44.2387                12.8884

                     43                     44                     45
                      A                      A                      A
 Frequencies --   1211.0721              1233.7205              1250.0095
 Red. masses --      1.4442                 1.6441                 1.5566
 Frc consts  --      1.2480                 1.4744                 1.4331
 IR Inten    --     26.6414                48.3675                16.6525

                     46                     47                     48
                      A                      A                      A
 Frequencies --   1286.8629              1308.3890              1321.1705
 Red. masses --      1.2109                 1.1939                 1.1555
 Frc consts  --      1.1815                 1.2042                 1.1884
 IR Inten    --     12.0417                17.6885                 6.8616

                     49                     50                     51
                      A                      A                      A
 Frequencies --   1331.0565              1342.9080              1359.5703
 Red. masses --      1.3107                 1.2635                 1.3498
 Frc consts  --      1.3681                 1.3426                 1.4700
 IR Inten    --     13.5312                 5.5577                 6.7954

                     52                     53                     54
                      A                      A                      A
 Frequencies --   1367.4542              1381.8539              1386.4793
 Red. masses --      1.2824                 1.4284                 1.4682
 Frc consts  --      1.4129                 1.6070                 1.6629
 IR Inten    --     14.7960                 0.6439                 1.1028

                     55                     56                     57
                      A                      A                      A
 Frequencies --   1392.1475              1398.2509              1400.7354
 Red. masses --      1.7517                 1.3108                 1.3427
 Frc consts  --      2.0003                 1.5099                 1.5521
 IR Inten    --      9.6106                 4.3071                 5.6490

                     58                     59                     60
                      A                      A                      A
 Frequencies --   1413.8004              1418.5164              1430.3712
 Red. masses --      1.3591                 1.3665                 1.3257
 Frc consts  --      1.6006                 1.6200                 1.5981
 IR Inten    --     12.4071                35.7811                 9.5218

                     61                     62                     63
                      A                      A                      A
 Frequencies --   1434.3515              1475.8923              1482.4573
 Red. masses --      1.3548                 1.1041                 1.0861
 Frc consts  --      1.6423                 1.4170                 1.4063
 IR Inten    --     12.3855                 5.0365                 8.7306

                     64                     65                     66
                      A                      A                      A
 Frequencies --   1483.2347              1494.0088              1495.3295
 Red. masses --      1.0917                 1.1094                 1.1059
 Frc consts  --      1.4151                 1.4590                 1.4569
 IR Inten    --      6.2488                10.5799                11.7296

                     67                     68                     69
                      A                      A                      A
 Frequencies --   1500.3718              1508.9860              1513.7115
 Red. masses --      1.0926                 1.0940                 1.1027
 Frc consts  --      1.4491                 1.4676                 1.4886
 IR Inten    --      0.9609                 3.8827                 9.6780

                     70                     71                     72
                      A                      A                      A
 Frequencies --   3019.8970              3046.4947              3056.6379
 Red. masses --      1.0705                 1.0661                 1.0686
 Frc consts  --      5.7519                 5.8297                 5.8823
 IR Inten    --     70.2722                36.0506                38.9843

                     73                     74                     75
                      A                      A                      A
 Frequencies --   3064.2519              3066.7129              3070.7668
 Red. masses --      1.0626                 1.0646                 1.0620
 Frc consts  --      5.8784                 5.8989                 5.9001
 IR Inten    --     45.1651                16.8634                24.5472

                     76                     77                     78
                      A                      A                      A
 Frequencies --   3071.9195              3078.5197              3080.8658
 Red. masses --      1.0626                 1.0631                 1.0809
 Frc consts  --      5.9082                 5.9365                 6.0450
 IR Inten    --     30.7341                32.6143                53.2303

                     79                     80                     81
                      A                      A                      A
 Frequencies --   3111.6675              3113.9588              3118.3906
 Red. masses --      1.0933                 1.0978                 1.0991
 Frc consts  --      6.2370                 6.2722                 6.2971
 IR Inten    --     79.1506                23.2119                22.2331

                     82                     83                     84
                      A                      A                      A
 Frequencies --   3119.3805              3126.3097              3131.3517
 Red. masses --      1.1019                 1.0974                 1.1029
 Frc consts  --      6.3170                 6.3194                 6.3717
 IR Inten    --     53.4184                70.1077                39.6401

                     85                     86                     87
                      A                      A                      A
 Frequencies --   3132.5310              3134.4376              3135.2089
 Red. masses --      1.0972                 1.0977                 1.0989
 Frc consts  --      6.3436                 6.3539                 6.3642
 IR Inten    --     53.4237                30.6723                57.9639

 - Thermochemistry -
 -------------------
 Temperature   298.150 Kelvin.  Pressure   1.00000 Atm.
 Atom     1 has atomic number  6 and mass  12.00000

 Molecular mass:   186.12559 amu.
 Principal axes and moments of inertia in atomic units:
                           1         2         3
     Eigenvalues --   920.232694091.750544586.62587
           X            0.99993   0.00908   0.00742
           Y           -0.00919   0.99986   0.01370
           Z           -0.00729  -0.01377   0.99988
 This molecule is an asymmetric top.
 Rotational symmetry number  1.
 Warning -- assumption of classical behavior for rotation
           may cause significant error
 Rotational temperatures (Kelvin)      0.09412     0.02117     0.01888
 Rotational constants (GHZ):           1.96118     0.44107     0.39348
    1 imaginary frequencies ignored.
 Zero-point vibrational energy     737331.8 (Joules/Mol)
                                  176.22654 (Kcal/Mol)
 Warning -- explicit consideration of  16 degrees of freedom as
           vibrations may cause significant error
 Vibrational temperatures:    107.19   141.07   201.89   283.95   325.79
          (Kelvin)            365.62   428.20   459.10   531.05   572.33
                              617.74   631.84   665.40   713.53   782.54
                              821.09   921.35  1022.45  1184.02  1203.13
                             1213.52  1258.96  1277.94  1287.57  1303.23
                             1336.63  1360.45  1407.76  1436.09  1454.01
                             1504.04  1511.52  1530.72  1541.10  1612.87
                             1640.83  1658.08  1660.58  1686.15  1717.56
                             1741.61  1742.46  1775.05  1798.48  1851.51
                             1882.48  1900.87  1915.09  1932.15  1956.12
                             1967.46  1988.18  1994.83  2002.99  2011.77
                             2015.35  2034.14  2040.93  2057.99  2063.71
                             2123.48  2132.93  2134.04  2149.55  2151.45
                             2158.70  2171.09  2177.89  4344.96  4383.23
                             4397.82  4408.78  4412.32  4418.15  4419.81
                             4429.30  4432.68  4477.00  4480.29  4486.67
                             4488.09  4498.06  4505.32  4507.01  4509.76
                             4510.87

 Zero-point correction=                           0.280835 (Hartree/Particle)
 Thermal correction to Energy=                    0.291654
 Thermal correction to Enthalpy=                  0.292598
 Thermal correction to Gibbs Free Energy=         0.244440
 Sum of electronic and zero-point Energies=           -617.219886
 Sum of electronic and thermal Energies=              -617.209067
 Sum of electronic and thermal Enthalpies=            -617.208123
 Sum of electronic and thermal Free Energies=         -617.256281

                     E (Thermal)             CV                S
                      KCal/Mol        Cal/Mol-Kelvin    Cal/Mol-Kelvin
 Total                  183.015             44.724            101.357
 Electronic               0.000              0.000              0.000
 Translational            0.889              2.981             41.570
 Rotational               0.889              2.981             31.224
 Vibrational            181.238             38.762             28.563
 Vibration     1          0.599              1.966              4.031
 Vibration     2          0.603              1.951              3.493
 Vibration     3          0.615              1.913              2.799
 Vibration     4          0.637              1.844              2.158
 Vibration     5          0.650              1.801              1.907
 Vibration     6          0.665              1.756              1.702
 Vibration     7          0.691              1.678              1.430
 Vibration     8          0.705              1.637              1.315
 Vibration     9          0.741              1.536              1.084
 Vibration    10          0.764              1.475              0.971
 Vibration    11          0.791              1.406              0.861
 Vibration    12          0.799              1.385              0.829
 Vibration    13          0.820              1.333              0.759
 Vibration    14          0.851              1.259              0.668
 Vibration    15          0.899              1.153              0.557
 Vibration    16          0.927              1.095              0.503

 Optimization completed.
    -- Stationary point found.
 Normal termination of Gaussian 16 at Sun Nov  4 22:57:59 2018.
