 Gaussian 16, Revision A.03,
 Gaussian 16:  ES64L-G16RevA.03 25-Dec-2016

 ----------------------------------------------------------------------
 #M062X/6-311++G(2d,2p) opt=ModRedundant freq=noraman SCRF=(Solvent=Wat
 er)
 ----------------------------------------------------------------------

 ---------------------------
 L_a1-e4_D_PSI.inp_extract_9
 ---------------------------
 Symbolic Z-matrix:
 Charge =  0 Multiplicity = 1

 SCF Done:  E(RM062X) =  -617.499066731     A.U. after   12 cycles
 SCF Done:  E(RM062X) =  -617.500704700     A.U. after   11 cycles
 SCF Done:  E(RM062X) =  -617.501154520     A.U. after   11 cycles
 SCF Done:  E(RM062X) =  -617.501294717     A.U. after   10 cycles
 SCF Done:  E(RM062X) =  -617.501307330     A.U. after    9 cycles
 SCF Done:  E(RM062X) =  -617.501307972     A.U. after    8 cycles
 Optimization completed.
    -- Stationary point found.
 Normal termination of Gaussian 16 at Sun Nov  4 21:51:12 2018.

 ----------------------------------------------------------------------
 #N Geom=AllCheck Guess=TCheck SCRF=Check GenChk RM062X/6-311++G(2d,2p)
  Freq
 ----------------------------------------------------------------------

 Structure from the checkpoint file:  "L_a1-e4_D_PSI.inp_extract_9.chk"
 ---------------------------
 L_a1-e4_D_PSI.inp_extract_9
 ---------------------------
 Charge =  0 Multiplicity = 1

                         Standard orientation:
 ---------------------------------------------------------------------
 Center     Atomic      Atomic             Coordinates (Angstroms)
 Number     Number       Type             X           Y           Z
 ---------------------------------------------------------------------
      1          6           0       -2.269041   -1.425889   -0.172305
      2          8           0       -1.366491   -0.913403    0.808606
      3          6           0       -3.255355    0.846084   -0.455027
      4          8           0        2.749786   -1.375130   -0.257419
      5          6           0       -1.016108    0.439550    0.603527
      6          6           0       -2.245902    1.333991    0.583050
      7          6           0        3.386423    0.963219   -0.111393
      8          8           0       -0.336362    0.615818   -0.614053
      9          6           0        1.913811    1.359743    0.008209
     10          6           0        3.591305   -0.447760    0.415806
     11          6           0        1.049300    0.286429   -0.642418
     12          6           0        1.377506   -1.084588   -0.049502
     13          6           0       -3.563032   -0.629861   -0.207708
     14          1           0       -1.786122   -1.406973   -1.153286
     15          1           0       -2.443498   -2.463140    0.104879
     16          1           0       -2.838320    0.969118   -1.456448
     17          1           0       -4.163867    1.445243   -0.405381
     18          1           0       -0.367414    0.686986    1.445191
     19          1           0       -2.694720    1.300250    1.577451
     20          1           0       -1.932160    2.358969    0.390073
     21          1           0        4.020378    1.656928    0.440991
     22          1           0        3.694367    0.996044   -1.158616
     23          1           0        1.649643    1.454533    1.064951
     24          1           0        1.723522    2.321234   -0.468440
     25          1           0        4.611936   -0.788213    0.255022
     26          1           0        3.378509   -0.483381    1.491403
     27          1           0        1.295780    0.241185   -1.705395
     28          1           0        0.801220   -1.866420   -0.539858
     29          1           0        1.153009   -1.108433    1.022186
     30          1           0       -4.213261   -1.033322   -0.984509
     31          1           0       -4.077917   -0.744398    0.749289
 ---------------------------------------------------------------------

 SCF Done:  E(RM062X) =  -617.501307972     A.U. after    1 cycles

 The electronic state is 1-A.
 Alpha  occ. eigenvalues --  -19.63330 -19.63081 -19.62838 -10.63549 -10.58889
 Alpha  occ. eigenvalues --  -10.58058 -10.57990 -10.57714 -10.53321 -10.53246
 Alpha  occ. eigenvalues --  -10.53060 -10.52985 -10.52848  -1.19988  -1.16543
 Alpha  occ. eigenvalues --   -1.13407  -0.90918  -0.89720  -0.87154  -0.84679
 Alpha  occ. eigenvalues --   -0.74751  -0.74180  -0.72973  -0.70982  -0.66690
 Alpha  occ. eigenvalues --   -0.62798  -0.60358  -0.58653  -0.56330  -0.55999
 Alpha  occ. eigenvalues --   -0.54182  -0.53472  -0.51588  -0.50734  -0.50003
 Alpha  occ. eigenvalues --   -0.49228  -0.46529  -0.46058  -0.45428  -0.44913
 Alpha  occ. eigenvalues --   -0.43894  -0.42624  -0.41253  -0.40421  -0.39519
 Alpha  occ. eigenvalues --   -0.38475  -0.37977  -0.36474  -0.34748  -0.33249
 Alpha  occ. eigenvalues --   -0.31849
 Alpha virt. eigenvalues --   -0.00043   0.00722   0.00793   0.01140   0.02166
 Alpha virt. eigenvalues --    0.02505   0.02606   0.03365   0.03664   0.04328
 Alpha virt. eigenvalues --    0.04588   0.04831   0.05577   0.05922   0.07168

 Mulliken charges:
               1
     1  C   -0.080674
     2  O   -0.256856
     3  C   -0.266710
     4  O   -0.363817
     5  C   -0.071495
     6  C   -0.453166
     7  C   -0.394200
     8  O   -0.296496
     9  C   -0.042342
    10  C   -0.155691
    11  C   -0.373940
    12  C   -0.246483
    13  C   -0.431619
    14  H    0.140975
    15  H    0.204182
    16  H    0.175350
    17  H    0.187031
    18  H    0.286449
    19  H    0.192240
    20  H    0.176682
    21  H    0.169003
    22  H    0.173568
    23  H    0.168389
    24  H    0.179231
    25  H    0.219359
    26  H    0.132074
    27  H    0.252697
    28  H    0.220193
    29  H    0.221584
    30  H    0.172128
    31  H    0.162353
 Sum of Mulliken charges =  -0.00000

 Dipole moment (field-independent basis, Debye):
    X=             -0.5509    Y=              2.1803    Z=              0.7378  Tot=              2.3668
 Quadrupole moment (field-independent basis, Debye-Ang):
   XX=            -72.6426   YY=            -82.4076   ZZ=            -80.9291
   XY=              6.5928   XZ=              3.5839   YZ=              2.4312

  Exact polarizability: 177.494   3.126 158.530   0.542   1.533 148.618
 Approx polarizability: 147.703   1.984 141.626  -0.476   1.082 142.878

                      1                      2                      3
                      A                      A                      A
 Frequencies --     48.1932                71.6950                98.1105
 Red. masses --      3.9863                 3.3274                 3.5396
 Frc consts  --      0.0055                 0.0101                 0.0201
 IR Inten    --      0.8872                 1.6527                 1.7249

                      4                      5                      6
                      A                      A                      A
 Frequencies --    137.0458               205.9313               230.2175
 Red. masses --      3.2392                 2.9263                 3.6966
 Frc consts  --      0.0358                 0.0731                 0.1154
 IR Inten    --      0.4754                 1.4561                 1.2162

                      7                      8                      9
                      A                      A                      A
 Frequencies --    253.2125               289.3628               320.6071
 Red. masses --      1.9226                 2.3328                 3.0020
 Frc consts  --      0.0726                 0.1151                 0.1818
 IR Inten    --      3.7839                 3.2288                16.0174

                     10                     11                     12
                      A                      A                      A
 Frequencies --    372.7585               396.8958               429.6721
 Red. masses --      2.3498                 2.3089                 3.1526
 Frc consts  --      0.1924                 0.2143                 0.3429
 IR Inten    --     17.3286                 6.8136                10.3906

                     13                     14                     15
                      A                      A                      A
 Frequencies --    439.4515               463.0760               496.4101
 Red. masses --      3.3743                 3.2672                 2.7102
 Frc consts  --      0.3839                 0.4128                 0.3935
 IR Inten    --      3.4952                 0.2874                 2.3875

                     16                     17                     18
                      A                      A                      A
 Frequencies --    542.1559               573.5947               639.0634
 Red. masses --      2.0077                 2.2963                 4.4152
 Frc consts  --      0.3477                 0.4451                 1.0624
 IR Inten    --      0.8241                18.8475                 1.7888

                     19                     20                     21
                      A                      A                      A
 Frequencies --    710.0452               820.8710               835.8316
 Red. masses --      2.8350                 2.0471                 1.5936
 Frc consts  --      0.8421                 0.8127                 0.6560
 IR Inten    --      0.9039                 1.2051                 3.4416

                     22                     23                     24
                      A                      A                      A
 Frequencies --    843.3246               874.5262               888.9045
 Red. masses --      3.3763                 1.4072                 2.3721
 Frc consts  --      1.4148                 0.6341                 1.1043
 IR Inten    --      7.1643                 8.8365                 4.0355

                     25                     26                     27
                      A                      A                      A
 Frequencies --    895.6747               906.6253               929.0237
 Red. masses --      2.4504                 2.3323                 1.7873
 Frc consts  --      1.1582                 1.1295                 0.9089
 IR Inten    --     34.1807                27.3864                26.7874

                     28                     29                     30
                      A                      A                      A
 Frequencies --    944.9208               977.9242               999.5473
 Red. masses --      2.3451                 1.6620                 1.8159
 Frc consts  --      1.2337                 0.9365                 1.0690
 IR Inten    --     48.9176                47.4019                22.3791

                     31                     32                     33
                      A                      A                      A
 Frequencies --   1008.1770              1044.8099              1051.5375
 Red. masses --      2.1195                 2.1966                 1.7191
 Frc consts  --      1.2693                 1.4128                 1.1199
 IR Inten    --     43.6216                73.7621                17.5758

                     34                     35                     36
                      A                      A                      A
 Frequencies --   1063.9522              1073.0305              1122.7637
 Red. masses --      1.5294                 2.2637                 4.6200
 Frc consts  --      1.0200                 1.5356                 3.4314
 IR Inten    --     74.1847                22.7485               337.4140

                     37                     38                     39
                      A                      A                      A
 Frequencies --   1144.0095              1151.9142              1157.9918
 Red. masses --      2.9956                 2.3124                 2.6467
 Frc consts  --      2.3099                 1.8078                 2.0911
 IR Inten    --     55.8477                57.4514                52.1573

                     40                     41                     42
                      A                      A                      A
 Frequencies --   1171.1194              1192.4508              1210.3104
 Red. masses --      3.9406                 2.4808                 1.4151
 Frc consts  --      3.1843                 2.0784                 1.2213
 IR Inten    --    139.2652                40.1938                 9.2716

                     43                     44                     45
                      A                      A                      A
 Frequencies --   1211.1082              1233.8994              1249.2647
 Red. masses --      1.4418                 1.6453                 1.5297
 Frc consts  --      1.2460                 1.4759                 1.4066
 IR Inten    --     34.9677                49.4782                17.2038

                     46                     47                     48
                      A                      A                      A
 Frequencies --   1287.5517              1308.8671              1319.4443
 Red. masses --      1.2119                 1.1795                 1.1521
 Frc consts  --      1.1837                 1.1906                 1.1818
 IR Inten    --     11.0718                18.2493                 6.9947

                     49                     50                     51
                      A                      A                      A
 Frequencies --   1334.0720              1344.4287              1359.1486
 Red. masses --      1.3113                 1.2801                 1.3527
 Frc consts  --      1.3750                 1.3632                 1.4722
 IR Inten    --     10.3391                 4.3237                 9.4873

                     52                     53                     54
                      A                      A                      A
 Frequencies --   1367.1780              1382.6843              1386.4008
 Red. masses --      1.2803                 1.4328                 1.4656
 Frc consts  --      1.4099                 1.6139                 1.6598
 IR Inten    --     13.8634                 0.3547                 1.0096

                     55                     56                     57
                      A                      A                      A
 Frequencies --   1392.4492              1398.1435              1403.6399
 Red. masses --      1.7005                 1.3265                 1.3028
 Frc consts  --      1.9426                 1.5278                 1.5123
 IR Inten    --      7.8229                 2.4914                11.9857

                     58                     59                     60
                      A                      A                      A
 Frequencies --   1412.1961              1415.8076              1430.3821
 Red. masses --      1.3841                 1.3830                 1.3324
 Frc consts  --      1.6263                 1.6334                 1.6062
 IR Inten    --     30.4830                19.3387                10.1233

                     61                     62                     63
                      A                      A                      A
 Frequencies --   1435.7751              1476.4497              1480.3017
 Red. masses --      1.3739                 1.1047                 1.0918
 Frc consts  --      1.6687                 1.4189                 1.4096
 IR Inten    --     11.3201                 5.1623                 6.7724

                     64                     65                     66
                      A                      A                      A
 Frequencies --   1482.8040              1490.4434              1495.1656
 Red. masses --      1.0862                 1.0980                 1.1058
 Frc consts  --      1.4071                 1.4370                 1.4565
 IR Inten    --      6.9901                 9.5723                14.0993

                     67                     68                     69
                      A                      A                      A
 Frequencies --   1497.6899              1508.8602              1511.1281
 Red. masses --      1.1078                 1.0940                 1.1012
 Frc consts  --      1.4640                 1.4675                 1.4815
 IR Inten    --      2.8112                 3.8265                 8.5722

                     70                     71                     72
                      A                      A                      A
 Frequencies --   3018.6742              3040.5146              3055.8349
 Red. masses --      1.0706                 1.0679                 1.0690
 Frc consts  --      5.7482                 5.8167                 5.8813
 IR Inten    --     68.7904                41.1043                38.9755

                     73                     74                     75
                      A                      A                      A
 Frequencies --   3059.2090              3063.7251              3070.5617
 Red. masses --      1.0666                 1.0625                 1.0623
 Frc consts  --      5.8810                 5.8758                 5.9014
 IR Inten    --     16.5268                48.7550                26.5887

                     76                     77                     78
                      A                      A                      A
 Frequencies --   3073.0999              3077.5056              3079.1755
 Red. masses --      1.0635                 1.0648                 1.0800
 Frc consts  --      5.9173                 5.9416                 6.0334
 IR Inten    --     28.7624                35.6633                47.9753

                     79                     80                     81
                      A                      A                      A
 Frequencies --   3095.6323              3113.6322              3116.6474
 Red. masses --      1.0838                 1.0980                 1.0986
 Frc consts  --      6.1190                 6.2718                 6.2873
 IR Inten    --     63.4261                39.2326                35.5668

                     82                     83                     84
                      A                      A                      A
 Frequencies --   3119.8615              3122.0268              3130.9549
 Red. masses --      1.1023                 1.1034                 1.1033
 Frc consts  --      6.3214                 6.3365                 6.3723
 IR Inten    --     61.3480                66.0121                40.7031

                     85                     86                     87
                      A                      A                      A
 Frequencies --   3133.9694              3135.5744              3139.2406
 Red. masses --      1.0944                 1.0987                 1.0980
 Frc consts  --      6.3333                 6.3644                 6.3755
 IR Inten    --     51.2795                43.7724                36.9714

 - Thermochemistry -
 -------------------
 Temperature   298.150 Kelvin.  Pressure   1.00000 Atm.
 Atom     1 has atomic number  6 and mass  12.00000

 Molecular mass:   186.12559 amu.
 Principal axes and moments of inertia in atomic units:
                           1         2         3
     Eigenvalues --   911.835434100.537524612.80622
           X            0.99994   0.00854   0.00621
           Y           -0.00865   0.99982   0.01678
           Z           -0.00607  -0.01684   0.99984
 This molecule is an asymmetric top.
 Rotational symmetry number  1.
 Warning -- assumption of classical behavior for rotation
           may cause significant error
 Rotational temperatures (Kelvin)      0.09499     0.02112     0.01878
 Rotational constants (GHZ):           1.97924     0.44012     0.39125
 Zero-point vibrational energy     737425.2 (Joules/Mol)
                                  176.24885 (Kcal/Mol)
 Warning -- explicit consideration of  17 degrees of freedom as
           vibrations may cause significant error
 Vibrational temperatures:     69.34   103.15   141.16   197.18   296.29
          (Kelvin)            331.23   364.32   416.33   461.28   536.32
                              571.04   618.20   632.27   666.26   714.22
                              780.04   825.27   919.47  1021.60  1181.05
                             1202.58  1213.36  1258.25  1278.94  1288.68
                             1304.43  1336.66  1359.53  1407.01  1438.13
                             1450.54  1503.25  1512.93  1530.79  1543.85
                             1615.41  1645.97  1657.35  1666.09  1684.98
                             1715.67  1741.37  1742.51  1775.31  1797.41
                             1852.50  1883.17  1898.39  1919.43  1934.33
                             1955.51  1967.06  1989.37  1994.72  2003.42
                             2011.62  2019.52  2031.84  2037.03  2058.00
                             2065.76  2124.28  2129.82  2133.42  2144.42
                             2151.21  2154.84  2170.91  2174.18  4343.20
                             4374.62  4396.66  4401.52  4408.02  4417.85
                             4421.51  4427.84  4430.25  4453.92  4479.82
                             4484.16  4488.78  4491.90  4504.75  4509.08
                             4511.39  4516.67

 Zero-point correction=                           0.280870 (Hartree/Particle)
 Thermal correction to Energy=                    0.292526
 Thermal correction to Enthalpy=                  0.293470
 Thermal correction to Gibbs Free Energy=         0.242970
 Sum of electronic and zero-point Energies=           -617.220438
 Sum of electronic and thermal Energies=              -617.208782
 Sum of electronic and thermal Enthalpies=            -617.207838
 Sum of electronic and thermal Free Energies=         -617.258338

                     E (Thermal)             CV                S
                      KCal/Mol        Cal/Mol-Kelvin    Cal/Mol-Kelvin
 Total                  183.563             46.692            106.287
 Electronic               0.000              0.000              0.000
 Translational            0.889              2.981             41.570
 Rotational               0.889              2.981             31.223
 Vibrational            181.785             40.731             33.495
 Vibration     1          0.595              1.978              4.890
 Vibration     2          0.598              1.967              4.106
 Vibration     3          0.604              1.950              3.492
 Vibration     4          0.614              1.916              2.845
 Vibration     5          0.640              1.831              2.079
 Vibration     6          0.652              1.795              1.877
 Vibration     7          0.664              1.757              1.708
 Vibration     8          0.686              1.694              1.478
 Vibration     9          0.706              1.634              1.307
 Vibration    10          0.744              1.528              1.068
 Vibration    11          0.763              1.477              0.974
 Vibration    12          0.791              1.406              0.860
 Vibration    13          0.799              1.384              0.828
 Vibration    14          0.821              1.332              0.757
 Vibration    15          0.852              1.258              0.667
 Vibration    16          0.897              1.157              0.561
 Vibration    17          0.930              1.088              0.497

 Optimization completed.
    -- Stationary point found.
 Normal termination of Gaussian 16 at Sun Nov  4 22:47:18 2018.
