 Gaussian 16, Revision A.03,
 Gaussian 16:  ES64L-G16RevA.03 25-Dec-2016

 ----------------------------------------------------------------------
 #M062X/6-311++G(2d,2p) opt=ModRedundant freq=noraman SCRF=(Solvent=Wat
 er)
 ----------------------------------------------------------------------

 ----------------------------
 L_a1-e4_D_PSI.inp_extract_14
 ----------------------------
 Symbolic Z-matrix:
 Charge =  0 Multiplicity = 1

 SCF Done:  E(RM062X) =  -617.497059984     A.U. after   12 cycles
 SCF Done:  E(RM062X) =  -617.498715908     A.U. after   12 cycles
 SCF Done:  E(RM062X) =  -617.499008433     A.U. after   11 cycles
 SCF Done:  E(RM062X) =  -617.499144264     A.U. after   10 cycles
 SCF Done:  E(RM062X) =  -617.499160017     A.U. after   10 cycles
 SCF Done:  E(RM062X) =  -617.499162064     A.U. after    8 cycles
 Optimization completed.
    -- Stationary point found.
 Normal termination of Gaussian 16 at Sun Nov  4 21:57:31 2018.

 ----------------------------------------------------------------------
 #N Geom=AllCheck Guess=TCheck SCRF=Check GenChk RM062X/6-311++G(2d,2p)
  Freq
 ----------------------------------------------------------------------

 Structure from the checkpoint file:  "L_a1-e4_D_PSI.inp_extract_14.chk"
 ----------------------------
 L_a1-e4_D_PSI.inp_extract_14
 ----------------------------
 Charge =  0 Multiplicity = 1

                         Standard orientation:
 ---------------------------------------------------------------------
 Center     Atomic      Atomic             Coordinates (Angstroms)
 Number     Number       Type             X           Y           Z
 ---------------------------------------------------------------------
      1          6           0       -1.878440   -1.208518    0.903907
      2          8           0       -1.256360    0.032189    1.240288
      3          6           0       -3.256886   -0.069837   -0.826260
      4          8           0        2.939766   -1.096001   -0.793224
      5          6           0       -1.171954    0.940121    0.158672
      6          6           0       -2.541129    1.223311   -0.442031
      7          6           0        3.137714    0.883524    0.594585
      8          8           0       -0.351410    0.442667   -0.863869
      9          6           0        1.619153    1.080967    0.574417
     10          6           0        3.490418   -0.582880    0.412598
     11          6           0        1.070387    0.460666   -0.705134
     12          6           0        1.530146   -0.991638   -0.797928
     13          6           0       -3.290001   -1.004191    0.381314
     14          1           0       -1.274742   -1.726520    0.153484
     15          1           0       -1.869067   -1.797482    1.818345
     16          1           0       -2.724665   -0.554484   -1.647238
     17          1           0       -4.264873    0.149440   -1.176700
     18          1           0       -0.750545    1.845488    0.590916
     19          1           0       -3.124642    1.754506    0.312322
     20          1           0       -2.417438    1.886042   -1.297379
     21          1           0        3.550887    1.243729    1.536718
     22          1           0        3.599367    1.460209   -0.209627
     23          1           0        1.169191    0.590211    1.439469
     24          1           0        1.385190    2.143760    0.629272
     25          1           0        4.566450   -0.727374    0.345114
     26          1           0        3.112557   -1.169315    1.259096
     27          1           0        1.476620    1.006299   -1.561274
     28          1           0        1.174216   -1.438460   -1.724424
     29          1           0        1.105150   -1.547372    0.048291
     30          1           0       -3.720989   -1.971551    0.121502
     31          1           0       -3.905079   -0.567119    1.171713
 ---------------------------------------------------------------------

 SCF Done:  E(RM062X) =  -617.499162064     A.U. after    1 cycles

 The electronic state is 1-A.
 Alpha  occ. eigenvalues --  -19.63167 -19.63135 -19.62778 -10.63457 -10.58928
 Alpha  occ. eigenvalues --  -10.58065 -10.57909 -10.57676 -10.53438 -10.53397
 Alpha  occ. eigenvalues --  -10.53023 -10.52945 -10.52811  -1.19759  -1.16690
 Alpha  occ. eigenvalues --   -1.13190  -0.91041  -0.89705  -0.87522  -0.84413
 Alpha  occ. eigenvalues --   -0.75285  -0.73929  -0.72647  -0.70837  -0.66708
 Alpha  occ. eigenvalues --   -0.62564  -0.60272  -0.58510  -0.57349  -0.55570
 Alpha  occ. eigenvalues --   -0.53759  -0.53428  -0.52564  -0.50670  -0.49577
 Alpha  occ. eigenvalues --   -0.48929  -0.46747  -0.46131  -0.45667  -0.44679
 Alpha  occ. eigenvalues --   -0.43737  -0.43350  -0.40798  -0.40119  -0.39339
 Alpha  occ. eigenvalues --   -0.38313  -0.37747  -0.36315  -0.35146  -0.33145
 Alpha  occ. eigenvalues --   -0.31909
 Alpha virt. eigenvalues --   -0.00080   0.00776   0.00875   0.00954   0.02222
 Alpha virt. eigenvalues --    0.02500   0.02658   0.03330   0.03614   0.04430
 Alpha virt. eigenvalues --    0.04745   0.04926   0.05644   0.05851   0.07166

 Mulliken charges:
               1
     1  C   -0.061926
     2  O   -0.280827
     3  C   -0.285136
     4  O   -0.345945
     5  C   -0.064616
     6  C   -0.548855
     7  C   -0.471737
     8  O   -0.329740
     9  C   -0.224778
    10  C   -0.163867
    11  C    0.061254
    12  C   -0.295154
    13  C   -0.440837
    14  H    0.115868
    15  H    0.208735
    16  H    0.174435
    17  H    0.190682
    18  H    0.287566
    19  H    0.192049
    20  H    0.185127
    21  H    0.166008
    22  H    0.181177
    23  H    0.263665
    24  H    0.158293
    25  H    0.213552
    26  H    0.135655
    27  H    0.246432
    28  H    0.204680
    29  H    0.193232
    30  H    0.173859
    31  H    0.161144
 Sum of Mulliken charges =  -0.00000

 Dipole moment (field-independent basis, Debye):
    X=             -0.9543    Y=              1.1751    Z=              1.1766  Tot=              1.9172
 Quadrupole moment (field-independent basis, Debye-Ang):
   XX=            -76.1430   YY=            -77.3336   ZZ=            -84.3752
   XY=              5.5332   XZ=              6.2338   YZ=             -2.0418

  Exact polarizability: 175.317   2.360 157.131   2.121  -0.757 151.858
 Approx polarizability: 147.118   1.646 141.764  -0.618   0.290 143.254

 ******    1 imaginary frequencies (negative Signs) ******

                      1                      2                      3
                      A                      A                      A
 Frequencies --    -52.4658                66.5865                97.9598
 Red. masses --      3.7986                 4.1275                 3.4053
 Frc consts  --      0.0062                 0.0108                 0.0193
 IR Inten    --      0.2201                 2.2998                 3.4405

                      4                      5                      6
                      A                      A                      A
 Frequencies --    156.4631               180.1677               222.6758
 Red. masses --      2.7763                 3.5207                 3.0010
 Frc consts  --      0.0400                 0.0673                 0.0877
 IR Inten    --      2.0933                 1.0947                 7.0356

                      7                      8                      9
                      A                      A                      A
 Frequencies --    253.6579               296.5431               340.8467
 Red. masses --      2.0377                 2.5343                 2.5498
 Frc consts  --      0.0772                 0.1313                 0.1745
 IR Inten    --      4.6879                 4.9099                 5.5744

                     10                     11                     12
                      A                      A                      A
 Frequencies --    370.4539               376.3554               437.8170
 Red. masses --      2.4479                 2.6507                 3.4077
 Frc consts  --      0.1979                 0.2212                 0.3849
 IR Inten    --     18.9719                 4.7717                 9.3708

                     13                     14                     15
                      A                      A                      A
 Frequencies --    439.7829               463.5038               477.7432
 Red. masses --      2.8985                 3.3245                 2.6500
 Frc consts  --      0.3303                 0.4208                 0.3564
 IR Inten    --      2.5869                 3.8379                 1.0124

                     16                     17                     18
                      A                      A                      A
 Frequencies --    537.1941               567.5870               636.4692
 Red. masses --      2.0534                 2.2215                 4.1602
 Frc consts  --      0.3491                 0.4217                 0.9929
 IR Inten    --      3.8755                18.0850                 4.9531

                     19                     20                     21
                      A                      A                      A
 Frequencies --    709.0416               821.7359               836.6375
 Red. masses --      2.7953                 2.0038                 1.6127
 Frc consts  --      0.8280                 0.7972                 0.6651
 IR Inten    --      3.9351                 1.2557                 3.7410

                     22                     23                     24
                      A                      A                      A
 Frequencies --    841.9045               881.8581               890.1109
 Red. masses --      3.3903                 1.3870                 2.3735
 Frc consts  --      1.4158                 0.6355                 1.1079
 IR Inten    --     10.8885                11.0127                17.1339

                     25                     26                     27
                      A                      A                      A
 Frequencies --    896.2121               912.2836               929.3727
 Red. masses --      2.5301                 2.2423                 1.8194
 Frc consts  --      1.1973                 1.0995                 0.9259
 IR Inten    --     11.9269                21.6507                22.7402

                     28                     29                     30
                      A                      A                      A
 Frequencies --    949.0612               980.1472               996.7738
 Red. masses --      2.2612                 2.0614                 1.6167
 Frc consts  --      1.2000                 1.1668                 0.9464
 IR Inten    --     31.7849                19.9655                13.4346

                     31                     32                     33
                      A                      A                      A
 Frequencies --   1016.7261              1045.7347              1060.5876
 Red. masses --      2.1448                 2.2630                 1.6319
 Frc consts  --      1.3063                 1.4580                 1.0816
 IR Inten    --     82.3768                58.6736                76.5322

                     34                     35                     36
                      A                      A                      A
 Frequencies --   1062.8853              1073.6589              1114.3078
 Red. masses --      1.7492                 2.0798                 4.3478
 Frc consts  --      1.1643                 1.4125                 3.1808
 IR Inten    --     12.8210                29.8693               237.0131

                     37                     38                     39
                      A                      A                      A
 Frequencies --   1141.8631              1156.5710              1163.2296
 Red. masses --      2.3103                 3.2588                 2.3089
 Frc consts  --      1.7748                 2.5684                 1.8407
 IR Inten    --     11.7480               132.1609                20.2856

                     40                     41                     42
                      A                      A                      A
 Frequencies --   1178.8652              1190.8111              1209.9519
 Red. masses --      3.9741                 2.2688                 1.4040
 Frc consts  --      3.2540                 1.8956                 1.2111
 IR Inten    --    257.6379                17.0769                12.7021

                     43                     44                     45
                      A                      A                      A
 Frequencies --   1218.7603              1233.4241              1254.1671
 Red. masses --      1.5317                 1.6334                 1.4915
 Frc consts  --      1.3405                 1.4641                 1.3822
 IR Inten    --     85.3840                42.0971                12.7302

                     46                     47                     48
                      A                      A                      A
 Frequencies --   1288.4084              1305.7023              1320.4164
 Red. masses --      1.2120                 1.1809                 1.1577
 Frc consts  --      1.1853                 1.1862                 1.1892
 IR Inten    --     17.5870                 7.0531                 7.1973

                     49                     50                     51
                      A                      A                      A
 Frequencies --   1330.8700              1350.1068              1352.7393
 Red. masses --      1.2723                 1.2676                 1.2023
 Frc consts  --      1.3278                 1.3614                 1.2963
 IR Inten    --     10.1651                 9.1778                 2.7615

                     52                     53                     54
                      A                      A                      A
 Frequencies --   1360.7887              1382.1635              1385.9136
 Red. masses --      1.3614                 1.4120                 1.4679
 Frc consts  --      1.4853                 1.5893                 1.6612
 IR Inten    --      7.1486                10.0038                 2.7280

                     55                     56                     57
                      A                      A                      A
 Frequencies --   1390.5341              1400.9396              1404.2140
 Red. masses --      1.6527                 1.2667                 1.4705
 Frc consts  --      1.8828                 1.4647                 1.7084
 IR Inten    --      5.8969                 6.1760                11.4229

                     58                     59                     60
                      A                      A                      A
 Frequencies --   1415.2122              1418.1479              1426.9418
 Red. masses --      1.4487                 1.3441                 1.4422
 Frc consts  --      1.7095                 1.5926                 1.7301
 IR Inten    --      3.4410                28.6915                 5.5952

                     61                     62                     63
                      A                      A                      A
 Frequencies --   1433.9218              1476.2736              1481.5372
 Red. masses --      1.3372                 1.1024                 1.0935
 Frc consts  --      1.6200                 1.4156                 1.4141
 IR Inten    --     17.8813                 5.6285                 9.2011

                     64                     65                     66
                      A                      A                      A
 Frequencies --   1482.6320              1493.9131              1498.5729
 Red. masses --      1.0867                 1.1097                 1.0911
 Frc consts  --      1.4074                 1.4592                 1.4437
 IR Inten    --      7.4240                12.2927                 5.0812

                     67                     68                     69
                      A                      A                      A
 Frequencies --   1502.7349              1510.0648              1515.7756
 Red. masses --      1.0983                 1.0935                 1.1014
 Frc consts  --      1.4613                 1.4691                 1.4910
 IR Inten    --      3.9623                 3.2512                 7.8579

                     70                     71                     72
                      A                      A                      A
 Frequencies --   3014.7084              3020.8688              3055.1397
 Red. masses --      1.0691                 1.0706                 1.0828
 Frc consts  --      5.7246                 5.7565                 5.9545
 IR Inten    --     39.9794                80.6165                55.4219

                     73                     74                     75
                      A                      A                      A
 Frequencies --   3055.7157              3063.6901              3070.5822
 Red. masses --      1.0695                 1.0627                 1.0635
 Frc consts  --      5.8837                 5.8770                 5.9077
 IR Inten    --     55.7679                42.1097                32.4887

                     76                     77                     78
                      A                      A                      A
 Frequencies --   3071.5245              3075.7832              3077.4439
 Red. masses --      1.0635                 1.0603                 1.0620
 Frc consts  --      5.9112                 5.9100                 5.9259
 IR Inten    --     27.2671                43.7692                16.8310

                     79                     80                     81
                      A                      A                      A
 Frequencies --   3113.6661              3117.6162              3119.2672
 Red. masses --      1.0975                 1.0990                 1.1022
 Frc consts  --      6.2690                 6.2934                 6.3183
 IR Inten    --     48.8036                12.7912                58.5028

                     82                     83                     84
                      A                      A                      A
 Frequencies --   3122.8983              3130.5298              3130.5756
 Red. masses --      1.0964                 1.0960                 1.1015
 Frc consts  --      6.2999                 6.3282                 6.3604
 IR Inten    --     42.1528                63.5106                51.2545

                     85                     86                     87
                      A                      A                      A
 Frequencies --   3131.1491              3135.1944              3136.0199
 Red. masses --      1.0960                 1.0976                 1.0965
 Frc consts  --      6.3307                 6.3566                 6.3537
 IR Inten    --     55.7052                56.9523                19.7174

 - Thermochemistry -
 -------------------
 Temperature   298.150 Kelvin.  Pressure   1.00000 Atm.
 Atom     1 has atomic number  6 and mass  12.00000

 Molecular mass:   186.12559 amu.
 Principal axes and moments of inertia in atomic units:
                           1         2         3
     Eigenvalues --   982.843114120.274724276.30200
           X            0.99988   0.01056   0.01154
           Y           -0.01017   0.99938  -0.03358
           Z           -0.01188   0.03346   0.99937
 This molecule is an asymmetric top.
 Rotational symmetry number  1.
 Warning -- assumption of classical behavior for rotation
           may cause significant error
 Rotational temperatures (Kelvin)      0.08813     0.02102     0.02025
 Rotational constants (GHZ):           1.83625     0.43801     0.42203
    1 imaginary frequencies ignored.
 Zero-point vibrational energy     737254.9 (Joules/Mol)
                                  176.20814 (Kcal/Mol)
 Warning -- explicit consideration of  16 degrees of freedom as
           vibrations may cause significant error
 Vibrational temperatures:     95.80   140.94   225.12   259.22   320.38
          (Kelvin)            364.96   426.66   490.40   533.00   541.49
                              629.92   632.75   666.88   687.37   772.90
                              816.63   915.74  1020.15  1182.29  1203.73
                             1211.31  1268.80  1280.67  1289.45  1312.57
                             1337.16  1365.49  1410.21  1434.14  1462.84
                             1504.58  1525.95  1529.25  1544.76  1603.24
                             1642.89  1664.05  1673.63  1696.12  1713.31
                             1740.85  1753.52  1774.62  1804.47  1853.73
                             1878.61  1899.78  1914.83  1942.50  1946.29
                             1957.87  1988.62  1994.02  2000.67  2015.64
                             2020.35  2036.17  2040.40  2053.05  2063.09
                             2124.03  2131.60  2133.18  2149.41  2156.11
                             2162.10  2172.65  2180.86  4337.49  4346.36
                             4395.66  4396.49  4407.97  4417.88  4419.24
                             4425.37  4427.76  4479.87  4485.55  4487.93
                             4493.15  4504.13  4504.20  4505.03  4510.85
                             4512.03

 Zero-point correction=                           0.280806 (Hartree/Particle)
 Thermal correction to Energy=                    0.291649
 Thermal correction to Enthalpy=                  0.292593
 Thermal correction to Gibbs Free Energy=         0.244330
 Sum of electronic and zero-point Energies=           -617.218357
 Sum of electronic and thermal Energies=              -617.207513
 Sum of electronic and thermal Enthalpies=            -617.206569
 Sum of electronic and thermal Free Energies=         -617.254832

                     E (Thermal)             CV                S
                      KCal/Mol        Cal/Mol-Kelvin    Cal/Mol-Kelvin
 Total                  183.013             44.736            101.579
 Electronic               0.000              0.000              0.000
 Translational            0.889              2.981             41.570
 Rotational               0.889              2.981             31.227
 Vibrational            181.235             38.774             28.782
 Vibration     1          0.598              1.970              4.252
 Vibration     2          0.603              1.951              3.495
 Vibration     3          0.620              1.895              2.592
 Vibration     4          0.629              1.867              2.327
 Vibration     5          0.648              1.807              1.937
 Vibration     6          0.665              1.757              1.705
 Vibration     7          0.690              1.680              1.436
 Vibration     8          0.720              1.594              1.208
 Vibration     9          0.742              1.533              1.078
 Vibration    10          0.747              1.520              1.054
 Vibration    11          0.798              1.388              0.833
 Vibration    12          0.800              1.383              0.827
 Vibration    13          0.821              1.331              0.756
 Vibration    14          0.834              1.299              0.716
 Vibration    15          0.892              1.168              0.571
 Vibration    16          0.924              1.101              0.509

 Optimization completed.
    -- Stationary point found.
 Normal termination of Gaussian 16 at Sun Nov  4 23:03:47 2018.
