 Gaussian 16, Revision A.03,
 Gaussian 16:  ES64L-G16RevA.03 25-Dec-2016

 ----------------------------------------------------------------------
 #M062X/6-311++G(2d,2p) opt=ModRedundant freq=noraman SCRF=(Solvent=Wat
 er)
 ----------------------------------------------------------------------

 ----------------------------
 L_a1-e4_D_PSI.inp_extract_16
 ----------------------------
 Symbolic Z-matrix:
 Charge =  0 Multiplicity = 1

 SCF Done:  E(RM062X) =  -617.497697206     A.U. after   12 cycles
 SCF Done:  E(RM062X) =  -617.499353779     A.U. after   11 cycles
 SCF Done:  E(RM062X) =  -617.499761325     A.U. after   10 cycles
 SCF Done:  E(RM062X) =  -617.499939529     A.U. after    9 cycles
 SCF Done:  E(RM062X) =  -617.499947699     A.U. after    9 cycles
 SCF Done:  E(RM062X) =  -617.499948431     A.U. after    8 cycles
 SCF Done:  E(RM062X) =  -617.499948782     A.U. after    7 cycles
 Optimization completed.
    -- Stationary point found.
 Normal termination of Gaussian 16 at Sun Nov  4 21:59:47 2018.

 ----------------------------------------------------------------------
 #N Geom=AllCheck Guess=TCheck SCRF=Check GenChk RM062X/6-311++G(2d,2p)
  Freq
 ----------------------------------------------------------------------

 Structure from the checkpoint file:  "L_a1-e4_D_PSI.inp_extract_16.chk"
 ----------------------------
 L_a1-e4_D_PSI.inp_extract_16
 ----------------------------
 Charge =  0 Multiplicity = 1

                         Standard orientation:
 ---------------------------------------------------------------------
 Center     Atomic      Atomic             Coordinates (Angstroms)
 Number     Number       Type             X           Y           Z
 ---------------------------------------------------------------------
      1          6           0       -1.881492    0.901696    1.208976
      2          8           0       -1.386771    1.287076   -0.073460
      3          6           0       -3.174800   -0.949478    0.151461
      4          8           0        3.109061   -1.141006    0.516368
      5          6           0       -1.252628    0.209841   -0.973589
      6          6           0       -2.581930   -0.500839   -1.183688
      7          6           0        3.001990    1.061756   -0.504257
      8          8           0       -0.335109   -0.751752   -0.520019
      9          6           0        1.472612    1.002976   -0.517587
     10          6           0        3.550435    0.206595    0.626568
     11          6           0        1.059604   -0.462766   -0.588482
     12          6           0        1.699347   -1.233425    0.558754
     13          6           0       -3.247566    0.244498    1.102196
     14          1           0       -1.168460    0.220467    1.682283
     15          1           0       -1.921728    1.817593    1.794415
     16          1           0       -2.544208   -1.725940    0.588815
     17          1           0       -4.162702   -1.382049   -0.003254
     18          1           0       -0.901628    0.662094   -1.902747
     19          1           0       -3.258770    0.204653   -1.669046
     20          1           0       -2.430756   -1.341210   -1.859792
     21          1           0        3.340799    2.090158   -0.378798
     22          1           0        3.401759    0.695863   -1.452458
     23          1           0        1.079324    1.446002    0.399254
     24          1           0        1.072104    1.571579   -1.355356
     25          1           0        4.637596    0.173465    0.610707
     26          1           0        3.228399    0.612593    1.593336
     27          1           0        1.441922   -0.875359   -1.530219
     28          1           0        1.442436   -2.288956    0.492940
     29          1           0        1.317986   -0.836006    1.508270
     30          1           0       -3.580411   -0.060734    2.094713
     31          1           0       -3.964537    0.976123    0.721705
 ---------------------------------------------------------------------

 SCF Done:  E(RM062X) =  -617.499948782     A.U. after    1 cycles

 The electronic state is 1-A.
 Alpha  occ. eigenvalues --  -19.63224 -19.63173 -19.62738 -10.63520 -10.58871
 Alpha  occ. eigenvalues --  -10.58082 -10.58069 -10.57697 -10.53297 -10.53203
 Alpha  occ. eigenvalues --  -10.52993 -10.52938 -10.52823  -1.19868  -1.16710
 Alpha  occ. eigenvalues --   -1.13349  -0.91061  -0.89610  -0.87544  -0.84408
 Alpha  occ. eigenvalues --   -0.75118  -0.73894  -0.72523  -0.70823  -0.66484
 Alpha  occ. eigenvalues --   -0.62946  -0.60303  -0.58722  -0.57075  -0.55253
 Alpha  occ. eigenvalues --   -0.54303  -0.53520  -0.52266  -0.50302  -0.49756
 Alpha  occ. eigenvalues --   -0.48636  -0.47234  -0.46246  -0.45449  -0.43978
 Alpha  occ. eigenvalues --   -0.43849  -0.43739  -0.40844  -0.39959  -0.39662
 Alpha  occ. eigenvalues --   -0.38318  -0.37484  -0.36317  -0.34546  -0.33192
 Alpha  occ. eigenvalues --   -0.32270
 Alpha virt. eigenvalues --   -0.00059   0.00789   0.00813   0.01010   0.02220
 Alpha virt. eigenvalues --    0.02507   0.02661   0.03371   0.03490   0.04475
 Alpha virt. eigenvalues --    0.04791   0.04886   0.05608   0.05910   0.07189

 Mulliken charges:
               1
     1  C   -0.069672
     2  O   -0.236631
     3  C   -0.272702
     4  O   -0.345576
     5  C    0.037832
     6  C   -0.592855
     7  C   -0.434292
     8  O   -0.303984
     9  C   -0.252945
    10  C   -0.200761
    11  C   -0.121493
    12  C   -0.165028
    13  C   -0.435352
    14  H    0.123912
    15  H    0.203273
    16  H    0.174358
    17  H    0.185081
    18  H    0.245428
    19  H    0.197873
    20  H    0.184087
    21  H    0.168827
    22  H    0.171846
    23  H    0.228812
    24  H    0.190123
    25  H    0.211907
    26  H    0.138477
    27  H    0.243870
    28  H    0.199318
    29  H    0.191778
    30  H    0.171778
    31  H    0.162709
 Sum of Mulliken charges =  -0.00000

 Dipole moment (field-independent basis, Debye):
    X=             -1.1161    Y=              1.4037    Z=              0.0327  Tot=              1.7937
 Quadrupole moment (field-independent basis, Debye-Ang):
   XX=            -78.3393   YY=            -85.0886   ZZ=            -75.9906
   XY=              8.4239   XZ=             -1.7976   YZ=              1.2814

  Exact polarizability: 174.233   3.182 154.754  -1.487   1.141 156.259
 Approx polarizability: 146.599   0.043 143.256  -1.679   0.700 142.823

 ******    1 imaginary frequencies (negative Signs) ******

                      1                      2                      3
                      A                      A                      A
 Frequencies --    -23.9981                57.6401               111.6112
 Red. masses --      3.5955                 3.8929                 3.5553
 Frc consts  --      0.0012                 0.0076                 0.0261
 IR Inten    --      0.8044                 1.0493                 3.5707

                      4                      5                      6
                      A                      A                      A
 Frequencies --    149.1202               187.3935               230.1560
 Red. masses --      2.9546                 3.3329                 2.9085
 Frc consts  --      0.0387                 0.0690                 0.0908
 IR Inten    --      0.7944                 2.4046                 6.8984

                      7                      8                      9
                      A                      A                      A
 Frequencies --    257.9988               284.9390               347.2811
 Red. masses --      2.0247                 3.0491                 2.7405
 Frc consts  --      0.0794                 0.1459                 0.1947
 IR Inten    --      5.9690                 2.2297                 8.2054

                     10                     11                     12
                      A                      A                      A
 Frequencies --    359.1861               379.7224               436.6586
 Red. masses --      2.1574                 2.5234                 3.4937
 Frc consts  --      0.1640                 0.2144                 0.3925
 IR Inten    --      2.2185                18.5259                 4.3354

                     13                     14                     15
                      A                      A                      A
 Frequencies --    449.4292               463.8026               475.6343
 Red. masses --      2.8573                 3.3574                 2.4335
 Frc consts  --      0.3400                 0.4255                 0.3244
 IR Inten    --      5.1180                 4.8548                 1.4220

                     16                     17                     18
                      A                      A                      A
 Frequencies --    536.0040               570.9216               635.7721
 Red. masses --      2.0687                 2.2675                 4.0644
 Frc consts  --      0.3502                 0.4355                 0.9680
 IR Inten    --      4.7584                16.3936                 8.7876

                     19                     20                     21
                      A                      A                      A
 Frequencies --    711.8617               824.1219               836.2317
 Red. masses --      2.7498                 2.0222                 1.6843
 Frc consts  --      0.8210                 0.8092                 0.6939
 IR Inten    --      4.5343                 0.7429                 0.8503

                     22                     23                     24
                      A                      A                      A
 Frequencies --    842.3155               879.6322               890.9783
 Red. masses --      3.1080                 1.4012                 2.3226
 Frc consts  --      1.2992                 0.6388                 1.0863
 IR Inten    --      9.6532                13.3689                21.9948

                     25                     26                     27
                      A                      A                      A
 Frequencies --    897.4278               911.0523               930.6174
 Red. masses --      2.5032                 2.4073                 1.7026
 Frc consts  --      1.1878                 1.1773                 0.8688
 IR Inten    --     11.0708                17.8755                25.9200

                     28                     29                     30
                      A                      A                      A
 Frequencies --    948.5103               982.2033               996.9127
 Red. masses --      2.2131                 2.2308                 1.5216
 Frc consts  --      1.1731                 1.2680                 0.8909
 IR Inten    --     28.5238                16.5890                 8.7926

                     31                     32                     33
                      A                      A                      A
 Frequencies --   1023.8689              1041.8835              1059.5093
 Red. masses --      2.1911                 2.2874                 1.7276
 Frc consts  --      1.3533                 1.4630                 1.1426
 IR Inten    --     81.4303                71.7094                27.7018

                     34                     35                     36
                      A                      A                      A
 Frequencies --   1064.3497              1073.1210              1121.7130
 Red. masses --      1.5331                 2.2483                 4.6961
 Frc consts  --      1.0232                 1.5255                 3.4814
 IR Inten    --     49.7885                22.8245               248.9502

                     37                     38                     39
                      A                      A                      A
 Frequencies --   1143.8657              1156.4162              1173.5569
 Red. masses --      2.2653                 2.9608                 2.4942
 Frc consts  --      1.7463                 2.3328                 2.0239
 IR Inten    --      5.3922               121.2647                16.9040

                     40                     41                     42
                      A                      A                      A
 Frequencies --   1177.4666              1188.6517              1211.3212
 Red. masses --      3.5144                 2.4152                 1.4810
 Frc consts  --      2.8707                 2.0105                 1.2803
 IR Inten    --    251.0097                24.7389                53.1937

                     43                     44                     45
                      A                      A                      A
 Frequencies --   1215.7419              1234.3966              1251.1182
 Red. masses --      1.5296                 1.6508                 1.4671
 Frc consts  --      1.3321                 1.4820                 1.3530
 IR Inten    --     63.0677                48.9906                12.4927

                     46                     47                     48
                      A                      A                      A
 Frequencies --   1288.7744              1302.1314              1320.4094
 Red. masses --      1.2162                 1.1692                 1.1521
 Frc consts  --      1.1902                 1.1680                 1.1835
 IR Inten    --     15.9930                 7.7834                 8.9850

                     49                     50                     51
                      A                      A                      A
 Frequencies --   1329.3704              1349.1890              1351.4930
 Red. masses --      1.2785                 1.2179                 1.2521
 Frc consts  --      1.3312                 1.3062                 1.3475
 IR Inten    --      6.2129                 0.6173                13.9019

                     52                     53                     54
                      A                      A                      A
 Frequencies --   1362.3429              1380.4488              1386.6173
 Red. masses --      1.3402                 1.4117                 1.4593
 Frc consts  --      1.4655                 1.5850                 1.6531
 IR Inten    --      8.7865                13.4454                 0.3293

                     55                     56                     57
                      A                      A                      A
 Frequencies --   1390.1911              1397.5255              1408.7768
 Red. masses --      1.5907                 1.2921                 1.4016
 Frc consts  --      1.8113                 1.4868                 1.6390
 IR Inten    --      4.2049                19.8726                 6.2962

                     58                     59                     60
                      A                      A                      A
 Frequencies --   1412.7309              1418.0667              1431.1336
 Red. masses --      1.4494                 1.4065                 1.4882
 Frc consts  --      1.7044                 1.6664                 1.7959
 IR Inten    --     30.6432                 3.3380                 7.8699

                     61                     62                     63
                      A                      A                      A
 Frequencies --   1435.1789              1475.9609              1481.5048
 Red. masses --      1.3543                 1.1050                 1.0944
 Frc consts  --      1.6435                 1.4183                 1.4152
 IR Inten    --     14.3487                 4.6966                 8.2372

                     64                     65                     66
                      A                      A                      A
 Frequencies --   1482.0990              1492.8228              1495.6523
 Red. masses --      1.0859                 1.1150                 1.1082
 Frc consts  --      1.4053                 1.4640                 1.4606
 IR Inten    --      7.9655                 9.3291                14.6662

                     67                     68                     69
                      A                      A                      A
 Frequencies --   1501.3509              1509.8561              1514.3938
 Red. masses --      1.0871                 1.0936                 1.1017
 Frc consts  --      1.4438                 1.4688                 1.4887
 IR Inten    --      0.4728                 3.4016                 8.8474

                     70                     71                     72
                      A                      A                      A
 Frequencies --   3011.3618              3019.9042              3022.7707
 Red. masses --      1.0748                 1.0708                 1.0768
 Frc consts  --      5.7423                 5.7538                 5.7966
 IR Inten    --      8.1514                66.0915               143.4694

                     73                     74                     75
                      A                      A                      A
 Frequencies --   3053.7397              3062.9488              3069.4423
 Red. masses --      1.0689                 1.0626                 1.0637
 Frc consts  --      5.8730                 5.8736                 5.9046
 IR Inten    --     48.6300                43.3766                32.8500

                     76                     77                     78
                      A                      A                      A
 Frequencies --   3072.7204              3075.2276              3080.3010
 Red. masses --      1.0658                 1.0651                 1.0621
 Frc consts  --      5.9290                 5.9344                 5.9373
 IR Inten    --     25.5072                19.2686                42.7493

                     79                     80                     81
                      A                      A                      A
 Frequencies --   3086.9918              3113.1556              3119.1222
 Red. masses --      1.0797                 1.0978                 1.1026
 Frc consts  --      6.0622                 6.2689                 6.3203
 IR Inten    --     58.3509                37.8232                67.3758

                     82                     83                     84
                      A                      A                      A
 Frequencies --   3120.1028              3130.5510              3131.7822
 Red. masses --      1.0998                 1.1030                 1.0956
 Frc consts  --      6.3079                 6.3692                 6.3312
 IR Inten    --     40.2061                42.4507                38.3797

                     85                     86                     87
                      A                      A                      A
 Frequencies --   3132.4885              3134.1601              3135.6282
 Red. masses --      1.1002                 1.0983                 1.0972
 Frc consts  --      6.3608                 6.3564                 6.3558
 IR Inten    --     57.4360                51.1583                34.5385

 - Thermochemistry -
 -------------------
 Temperature   298.150 Kelvin.  Pressure   1.00000 Atm.
 Atom     1 has atomic number  6 and mass  12.00000

 Molecular mass:   186.12559 amu.
 Principal axes and moments of inertia in atomic units:
                           1         2         3
     Eigenvalues --   991.526944178.071124301.52072
           X            0.99986   0.01610  -0.00435
           Y           -0.01601   0.99966   0.02047
           Z            0.00468  -0.02040   0.99978
 This molecule is an asymmetric top.
 Rotational symmetry number  1.
 Warning -- assumption of classical behavior for rotation
           may cause significant error
 Rotational temperatures (Kelvin)      0.08735     0.02073     0.02014
 Rotational constants (GHZ):           1.82016     0.43196     0.41956
    1 imaginary frequencies ignored.
 Zero-point vibrational energy     736974.6 (Joules/Mol)
                                  176.14116 (Kcal/Mol)
 Warning -- explicit consideration of  16 degrees of freedom as
           vibrations may cause significant error
 Vibrational temperatures:     82.93   160.58   214.55   269.62   331.14
          (Kelvin)            371.20   409.96   499.66   516.79   546.34
                              628.25   646.63   667.31   684.33   771.19
                              821.43   914.73  1024.21  1185.73  1203.15
                             1211.90  1265.59  1281.92  1291.20  1310.80
                             1338.95  1364.69  1413.17  1434.33  1473.12
                             1499.04  1524.40  1531.36  1543.98  1613.89
                             1645.77  1663.82  1688.49  1694.11  1710.20
                             1742.82  1749.18  1776.02  1800.08  1854.26
                             1873.48  1899.77  1912.67  1941.18  1944.50
                             1960.11  1986.16  1995.03  2000.17  2010.73
                             2026.92  2032.60  2040.28  2059.08  2064.90
                             2123.58  2131.55  2132.41  2147.84  2151.91
                             2160.11  2172.35  2178.87  4332.68  4344.97
                             4349.09  4393.65  4406.90  4416.24  4420.96
                             4424.57  4431.87  4441.49  4479.14  4487.72
                             4489.13  4504.16  4505.94  4506.95  4509.36
                             4511.47

 Zero-point correction=                           0.280699 (Hartree/Particle)
 Thermal correction to Energy=                    0.291525
 Thermal correction to Enthalpy=                  0.292469
 Thermal correction to Gibbs Free Energy=         0.244193
 Sum of electronic and zero-point Energies=           -617.219250
 Sum of electronic and thermal Energies=              -617.208424
 Sum of electronic and thermal Enthalpies=            -617.207480
 Sum of electronic and thermal Free Energies=         -617.255756

                     E (Thermal)             CV                S
                      KCal/Mol        Cal/Mol-Kelvin    Cal/Mol-Kelvin
 Total                  182.935             44.695            101.606
 Electronic               0.000              0.000              0.000
 Translational            0.889              2.981             41.570
 Rotational               0.889              2.981             31.255
 Vibrational            181.157             38.734             28.781
 Vibration     1          0.596              1.974              4.536
 Vibration     2          0.607              1.940              3.241
 Vibration     3          0.618              1.904              2.683
 Vibration     4          0.632              1.857              2.253
 Vibration     5          0.652              1.795              1.878
 Vibration     6          0.667              1.749              1.675
 Vibration     7          0.683              1.702              1.504
 Vibration     8          0.725              1.581              1.178
 Vibration     9          0.734              1.556              1.126
 Vibration    10          0.750              1.513              1.040
 Vibration    11          0.797              1.390              0.837
 Vibration    12          0.808              1.362              0.798
 Vibration    13          0.821              1.330              0.755
 Vibration    14          0.832              1.304              0.722
 Vibration    15          0.891              1.170              0.574
 Vibration    16          0.927              1.094              0.502

 Optimization completed.
    -- Stationary point found.
 Normal termination of Gaussian 16 at Sun Nov  4 22:52:29 2018.
