 Gaussian 16, Revision A.03,
 Gaussian 16:  ES64L-G16RevA.03 25-Dec-2016

 ----------------------------------------------------------------------
 #M062X/6-311++G(2d,2p) opt=ModRedundant freq=noraman SCRF=(Solvent=Wat
 er)
 ----------------------------------------------------------------------

 ----------------------------
 L_a1-e4_D_PSI.inp_extract_18
 ----------------------------
 Symbolic Z-matrix:
 Charge =  0 Multiplicity = 1

 SCF Done:  E(RM062X) =  -617.501101860     A.U. after   12 cycles
 SCF Done:  E(RM062X) =  -617.502881839     A.U. after   10 cycles
 SCF Done:  E(RM062X) =  -617.503090221     A.U. after   10 cycles
 SCF Done:  E(RM062X) =  -617.503155503     A.U. after    9 cycles
 SCF Done:  E(RM062X) =  -617.503162497     A.U. after    8 cycles
 SCF Done:  E(RM062X) =  -617.503163518     A.U. after    8 cycles
 Optimization completed.
    -- Stationary point found.
 Normal termination of Gaussian 16 at Sun Nov  4 21:55:15 2018.

 ----------------------------------------------------------------------
 #N Geom=AllCheck Guess=TCheck SCRF=Check GenChk RM062X/6-311++G(2d,2p)
  Freq
 ----------------------------------------------------------------------

 Structure from the checkpoint file:  "L_a1-e4_D_PSI.inp_extract_18.chk"
 ----------------------------
 L_a1-e4_D_PSI.inp_extract_18
 ----------------------------
 Charge =  0 Multiplicity = 1

                         Standard orientation:
 ---------------------------------------------------------------------
 Center     Atomic      Atomic             Coordinates (Angstroms)
 Number     Number       Type             X           Y           Z
 ---------------------------------------------------------------------
      1          6           0        2.069193    1.254732   -0.809136
      2          8           0        1.514584    1.197457    0.505029
      3          6           0        3.162741   -0.954684   -0.444980
      4          8           0       -3.266992   -1.072151   -0.378449
      5          6           0        1.251594   -0.115986    0.949045
      6          6           0        2.514362   -0.963908    0.938844
      7          6           0       -2.942752    1.172845    0.480269
      8          8           0        0.292838   -0.757497    0.146136
      9          6           0       -1.425215    1.020738    0.358709
     10          6           0       -3.647983    0.289237   -0.534493
     11          6           0       -1.064869   -0.458134    0.438933
     12          6           0       -1.878981   -1.250075   -0.575605
     13          6           0        3.379408    0.489611   -0.893555
     14          1           0        1.347134    0.849507   -1.523590
     15          1           0        2.207544    2.312323   -1.022614
     16          1           0        2.510453   -1.463817   -1.157353
     17          1           0        4.105799   -1.499597   -0.421153
     18          1           0        0.862026    0.002637    1.963194
     19          1           0        3.203127   -0.538540    1.671073
     20          1           0        2.263623   -1.973990    1.259829
     21          1           0       -3.235110    2.211740    0.326975
     22          1           0       -3.266991    0.884877    1.482808
     23          1           0       -1.083164    1.409088   -0.604970
     24          1           0       -0.915690    1.586040    1.136506
     25          1           0       -4.728098    0.320172   -0.409211
     26          1           0       -3.405956    0.615997   -1.553221
     27          1           0       -1.301438   -0.829186    1.444312
     28          1           0       -1.671706   -2.313839   -0.477609
     29          1           0       -1.593512   -0.926810   -1.584812
     30          1           0        3.758306    0.533424   -1.915089
     31          1           0        4.115214    0.971243   -0.244990
 ---------------------------------------------------------------------

 SCF Done:  E(RM062X) =  -617.503163518     A.U. after    1 cycles

 The electronic state is 1-A.
 Alpha  occ. eigenvalues --  -19.63359 -19.63175 -19.62715 -10.63537 -10.58851
 Alpha  occ. eigenvalues --  -10.58122 -10.58033 -10.57663 -10.53212 -10.53024
 Alpha  occ. eigenvalues --  -10.53012 -10.52974 -10.52820  -1.20012  -1.16721
 Alpha  occ. eigenvalues --   -1.13499  -0.90979  -0.89578  -0.87477  -0.84396
 Alpha  occ. eigenvalues --   -0.74926  -0.73865  -0.72544  -0.71031  -0.66135
 Alpha  occ. eigenvalues --   -0.63500  -0.60229  -0.58663  -0.57126  -0.55236
 Alpha  occ. eigenvalues --   -0.54491  -0.53327  -0.52170  -0.50173  -0.50041
 Alpha  occ. eigenvalues --   -0.48477  -0.47640  -0.46207  -0.45193  -0.44041
 Alpha  occ. eigenvalues --   -0.43868  -0.43006  -0.41003  -0.40117  -0.39834
 Alpha  occ. eigenvalues --   -0.38288  -0.37645  -0.36451  -0.34544  -0.33514
 Alpha  occ. eigenvalues --   -0.32075
 Alpha virt. eigenvalues --   -0.00052   0.00768   0.00795   0.01025   0.02215
 Alpha virt. eigenvalues --    0.02508   0.02660   0.03325   0.03458   0.04457
 Alpha virt. eigenvalues --    0.04767   0.04831   0.05569   0.05941   0.07116

 Mulliken charges:
               1
     1  C   -0.059310
     2  O   -0.252725
     3  C   -0.272908
     4  O   -0.347926
     5  C    0.038092
     6  C   -0.509155
     7  C   -0.515394
     8  O   -0.288697
     9  C   -0.171055
    10  C   -0.214334
    11  C   -0.125475
    12  C   -0.222126
    13  C   -0.443361
    14  H    0.139845
    15  H    0.201358
    16  H    0.170434
    17  H    0.183945
    18  H    0.233711
    19  H    0.193294
    20  H    0.185509
    21  H    0.168825
    22  H    0.172332
    23  H    0.213371
    24  H    0.202584
    25  H    0.209198
    26  H    0.138252
    27  H    0.249652
    28  H    0.197869
    29  H    0.189312
    30  H    0.171615
    31  H    0.163269
 Sum of Mulliken charges =  -0.00000

 Dipole moment (field-independent basis, Debye):
    X=              1.2557    Y=              1.1922    Z=             -0.2207  Tot=              1.7455
 Quadrupole moment (field-independent basis, Debye-Ang):
   XX=            -79.2400   YY=            -83.0921   ZZ=            -77.2806
   XY=             -8.4063   XZ=             -1.5291   YZ=             -3.3470

  Exact polarizability: 173.654  -2.704 157.496  -2.126  -2.081 154.210
 Approx polarizability: 146.019  -0.005 143.030  -1.776  -0.897 143.172

                      1                      2                      3
                      A                      A                      A
 Frequencies --     44.1198                52.3507               100.1532
 Red. masses --      3.3420                 3.9130                 3.7132
 Frc consts  --      0.0038                 0.0063                 0.0219
 IR Inten    --      1.6755                 0.2990                 2.9423

                      4                      5                      6
                      A                      A                      A
 Frequencies --    143.8690               198.9571               232.5603
 Red. masses --      3.0554                 3.0980                 3.0062
 Frc consts  --      0.0373                 0.0723                 0.0958
 IR Inten    --      2.0540                 0.9967                 7.9876

                      7                      8                      9
                      A                      A                      A
 Frequencies --    253.4278               269.5019               340.4495
 Red. masses --      1.9632                 3.1680                 2.8062
 Frc consts  --      0.0743                 0.1356                 0.1916
 IR Inten    --      4.2222                 0.7178                 9.2039

                     10                     11                     12
                      A                      A                      A
 Frequencies --    360.0282               389.3873               434.9766
 Red. masses --      2.0062                 2.4182                 3.4704
 Frc consts  --      0.1532                 0.2160                 0.3869
 IR Inten    --      4.3562                18.4933                 4.0350

                     13                     14                     15
                      A                      A                      A
 Frequencies --    456.3760               462.8396               483.1473
 Red. masses --      3.8936                 3.2040                 2.1817
 Frc consts  --      0.4778                 0.4044                 0.3001
 IR Inten    --      5.7057                 1.4103                 0.6153

                     16                     17                     18
                      A                      A                      A
 Frequencies --    533.0721               575.5794               624.8907
 Red. masses --      2.1078                 2.3396                 3.6250
 Frc consts  --      0.3529                 0.4567                 0.8340
 IR Inten    --      4.2617                17.6858                11.8088

                     19                     20                     21
                      A                      A                      A
 Frequencies --    716.4858               825.7954               835.1361
 Red. masses --      2.8445                 2.1184                 1.5523
 Frc consts  --      0.8604                 0.8512                 0.6379
 IR Inten    --      5.8453                 1.1439                 1.8508

                     22                     23                     24
                      A                      A                      A
 Frequencies --    843.3866               881.7964               893.7286
 Red. masses --      3.4257                 1.3944                 2.3477
 Frc consts  --      1.4357                 0.6388                 1.1049
 IR Inten    --      6.9980                11.7769                30.9309

                     25                     26                     27
                      A                      A                      A
 Frequencies --    897.7549               906.7717               933.1580
 Red. masses --      2.4804                 2.4517                 1.6453
 Frc consts  --      1.1778                 1.1877                 0.8441
 IR Inten    --      7.3296                15.3727                26.2501

                     28                     29                     30
                      A                      A                      A
 Frequencies --    944.5384               982.7796              1000.6006
 Red. masses --      2.1657                 2.3620                 1.4898
 Frc consts  --      1.1384                 1.3441                 0.8788
 IR Inten    --     36.7111                19.3820                 8.7451

                     31                     32                     33
                      A                      A                      A
 Frequencies --   1027.7680              1042.9606              1061.4745
 Red. masses --      2.2125                 2.2657                 1.6993
 Frc consts  --      1.3770                 1.4521                 1.1281
 IR Inten    --     79.2890                67.1705                28.7547

                     34                     35                     36
                      A                      A                      A
 Frequencies --   1064.7551              1073.9817              1122.7000
 Red. masses --      1.5063                 2.3263                 4.6011
 Frc consts  --      1.0062                 1.5809                 3.4169
 IR Inten    --     60.4878                24.9631               268.5754

                     37                     38                     39
                      A                      A                      A
 Frequencies --   1146.7121              1155.3554              1173.5664
 Red. masses --      2.2375                 2.9444                 3.8105
 Frc consts  --      1.7335                 2.3157                 3.0920
 IR Inten    --      3.4498               116.8451               204.8092

                     40                     41                     42
                      A                      A                      A
 Frequencies --   1180.3305              1186.8491              1211.4260
 Red. masses --      2.5510                 2.5735                 1.5073
 Frc consts  --      2.0939                 2.1359                 1.3033
 IR Inten    --     31.8256                50.7383                61.4529

                     43                     44                     45
                      A                      A                      A
 Frequencies --   1213.7353              1233.7948              1248.6699
 Red. masses --      1.4172                 1.6524                 1.4510
 Frc consts  --      1.2301                 1.4820                 1.3329
 IR Inten    --     20.5244                53.8922                18.2974

                     46                     47                     48
                      A                      A                      A
 Frequencies --   1288.7560              1301.9950              1319.0543
 Red. masses --      1.2168                 1.1742                 1.1539
 Frc consts  --      1.1907                 1.1728                 1.1829
 IR Inten    --     15.3870                12.5768                 8.9842

                     49                     50                     51
                      A                      A                      A
 Frequencies --   1330.5628              1343.9937              1353.0147
 Red. masses --      1.2716                 1.1910                 1.2743
 Frc consts  --      1.3264                 1.2676                 1.3744
 IR Inten    --      7.2972                10.2859                15.3259

                     52                     53                     54
                      A                      A                      A
 Frequencies --   1360.2153              1382.5789              1387.0869
 Red. masses --      1.3296                 1.4250                 1.4749
 Frc consts  --      1.4494                 1.6049                 1.6719
 IR Inten    --      4.9804                 8.7498                 0.5005

                     55                     56                     57
                      A                      A                      A
 Frequencies --   1389.9336              1398.0491              1404.7756
 Red. masses --      1.5957                 1.3105                 1.3977
 Frc consts  --      1.8163                 1.5091                 1.6251
 IR Inten    --      3.1769                10.4159                 8.2152

                     58                     59                     60
                      A                      A                      A
 Frequencies --   1407.6666              1418.9474              1429.9255
 Red. masses --      1.5204                 1.3944                 1.4133
 Frc consts  --      1.7751                 1.6542                 1.7026
 IR Inten    --     37.9426                15.8244                 9.2723

                     61                     62                     63
                      A                      A                      A
 Frequencies --   1440.1743              1475.4072              1479.9144
 Red. masses --      1.4274                 1.1057                 1.0941
 Frc consts  --      1.7443                 1.4182                 1.4118
 IR Inten    --      7.3986                 5.5290                 8.1231

                     64                     65                     66
                      A                      A                      A
 Frequencies --   1482.2715              1492.7919              1494.2628
 Red. masses --      1.0868                 1.1165                 1.1090
 Frc consts  --      1.4069                 1.4659                 1.4589
 IR Inten    --      7.4478                 8.7851                15.8147

                     67                     68                     69
                      A                      A                      A
 Frequencies --   1502.0356              1509.1471              1514.4787
 Red. masses --      1.0858                 1.0938                 1.1012
 Frc consts  --      1.4433                 1.4678                 1.4882
 IR Inten    --      0.6808                 3.8167                 8.0794

                     70                     71                     72
                      A                      A                      A
 Frequencies --   3011.4233              3020.7666              3022.7495
 Red. masses --      1.0780                 1.0710                 1.0732
 Frc consts  --      5.7597                 5.7578                 5.7774
 IR Inten    --     14.5795                48.2088               134.9931

                     73                     74                     75
                      A                      A                      A
 Frequencies --   3053.0321              3060.0009              3063.3202
 Red. masses --      1.0689                 1.0687                 1.0632
 Frc consts  --      5.8704                 5.8959                 5.8783
 IR Inten    --     48.9119                25.9217                41.3979

                     76                     77                     78
                      A                      A                      A
 Frequencies --   3068.8297              3070.3361              3072.3375
 Red. masses --      1.0769                 1.0620                 1.0651
 Frc consts  --      5.9757                 5.8984                 5.9234
 IR Inten    --     29.5861                49.2339                22.7359

                     79                     80                     81
                      A                      A                      A
 Frequencies --   3081.0764              3114.0798              3119.4289
 Red. masses --      1.0694                 1.0977                 1.1014
 Frc consts  --      5.9812                 6.2719                 6.3148
 IR Inten    --     72.3572                38.7463                97.6157

                     82                     83                     84
                      A                      A                      A
 Frequencies --   3119.4915              3130.5111              3133.3094
 Red. masses --      1.1011                 1.1031                 1.0948
 Frc consts  --      6.3132                 6.3694                 6.3330
 IR Inten    --     11.9545                39.0320                46.3007

                     85                     86                     87
                      A                      A                      A
 Frequencies --   3133.6892              3134.2791              3136.2337
 Red. masses --      1.0954                 1.0984                 1.0964
 Frc consts  --      6.3378                 6.3576                 6.3536
 IR Inten    --     35.8592                53.9561                31.7734

 - Thermochemistry -
 -------------------
 Temperature   298.150 Kelvin.  Pressure   1.00000 Atm.
 Atom     1 has atomic number  6 and mass  12.00000

 Molecular mass:   186.12559 amu.
 Principal axes and moments of inertia in atomic units:
                           1         2         3
     Eigenvalues --   962.756424244.470424562.58328
           X            0.99988  -0.01518  -0.00441
           Y            0.01505   0.99945  -0.02949
           Z            0.00485   0.02942   0.99956
 This molecule is an asymmetric top.
 Rotational symmetry number  1.
 Warning -- assumption of classical behavior for rotation
           may cause significant error
 Rotational temperatures (Kelvin)      0.08996     0.02041     0.01898
 Rotational constants (GHZ):           1.87456     0.42520     0.39555
 Zero-point vibrational energy     736981.2 (Joules/Mol)
                                  176.14273 (Kcal/Mol)
 Warning -- explicit consideration of  17 degrees of freedom as
           vibrations may cause significant error
 Vibrational temperatures:     63.48    75.32   144.10   207.00   286.25
          (Kelvin)            334.60   364.63   387.75   489.83   518.00
                              560.24   625.83   656.62   665.92   695.14
                              766.97   828.13   899.08  1030.86  1188.14
                             1201.57  1213.45  1268.71  1285.88  1291.67
                             1304.64  1342.61  1358.98  1414.00  1439.64
                             1478.73  1500.59  1527.23  1531.95  1545.22
                             1615.31  1649.86  1662.30  1688.50  1698.23
                             1707.61  1742.97  1746.29  1775.16  1796.56
                             1854.23  1873.28  1897.82  1914.38  1933.71
                             1946.69  1957.05  1989.22  1995.71  1999.80
                             2011.48  2021.16  2025.32  2041.55  2057.34
                             2072.09  2122.78  2129.27  2132.66  2147.79
                             2149.91  2161.09  2171.33  2179.00  4332.77
                             4346.21  4349.06  4392.63  4402.66  4407.43
                             4415.36  4417.53  4420.41  4432.98  4480.47
                             4488.16  4488.25  4504.11  4508.13  4508.68
                             4509.53  4512.34

 Zero-point correction=                           0.280701 (Hartree/Particle)
 Thermal correction to Energy=                    0.292410
 Thermal correction to Enthalpy=                  0.293354
 Thermal correction to Gibbs Free Energy=         0.242446
 Sum of electronic and zero-point Energies=           -617.222462
 Sum of electronic and thermal Energies=              -617.210754
 Sum of electronic and thermal Enthalpies=            -617.209810
 Sum of electronic and thermal Free Energies=         -617.260717

                     E (Thermal)             CV                S
                      KCal/Mol        Cal/Mol-Kelvin    Cal/Mol-Kelvin
 Total                  183.490             46.672            107.144
 Electronic               0.000              0.000              0.000
 Translational            0.889              2.981             41.570
 Rotational               0.889              2.981             31.300
 Vibrational            181.712             40.711             34.274
 Vibration     1          0.595              1.980              5.065
 Vibration     2          0.596              1.977              4.727
 Vibration     3          0.604              1.949              3.451
 Vibration     4          0.616              1.909              2.752
 Vibration     5          0.637              1.841              2.143
 Vibration     6          0.653              1.791              1.859
 Vibration     7          0.665              1.757              1.707
 Vibration     8          0.674              1.729              1.599
 Vibration     9          0.720              1.595              1.210
 Vibration    10          0.735              1.555              1.122
 Vibration    11          0.757              1.493              1.002
 Vibration    12          0.796              1.394              0.843
 Vibration    13          0.815              1.347              0.777
 Vibration    14          0.820              1.332              0.758
 Vibration    15          0.839              1.287              0.702
 Vibration    16          0.888              1.177              0.580
 Vibration    17          0.932              1.084              0.494

 Optimization completed.
    -- Stationary point found.
 Normal termination of Gaussian 16 at Sun Nov  4 22:49:59 2018.
