 Gaussian 16, Revision A.03,
 Gaussian 16:  ES64L-G16RevA.03 25-Dec-2016

 ----------------------------------------------------------------------
 #M062X/6-311++G(2d,2p) opt=ModRedundant freq=noraman SCRF=(Solvent=Wat
 er)
 ----------------------------------------------------------------------

 ----------------------------
 L_a1-e4_D_PSI.inp_extract_19
 ----------------------------
 Symbolic Z-matrix:
 Charge =  0 Multiplicity = 1

 SCF Done:  E(RM062X) =  -617.501340062     A.U. after   12 cycles
 SCF Done:  E(RM062X) =  -617.503171832     A.U. after   10 cycles
 SCF Done:  E(RM062X) =  -617.503399160     A.U. after   10 cycles
 SCF Done:  E(RM062X) =  -617.503457987     A.U. after   10 cycles
 SCF Done:  E(RM062X) =  -617.503476631     A.U. after    8 cycles
 SCF Done:  E(RM062X) =  -617.503480690     A.U. after    8 cycles
 SCF Done:  E(RM062X) =  -617.503481009     A.U. after    7 cycles
 Optimization completed.
    -- Stationary point found.
 Normal termination of Gaussian 16 at Sun Nov  4 21:59:12 2018.

 ----------------------------------------------------------------------
 #N Geom=AllCheck Guess=TCheck SCRF=Check GenChk RM062X/6-311++G(2d,2p)
  Freq
 ----------------------------------------------------------------------

 Structure from the checkpoint file:  "L_a1-e4_D_PSI.inp_extract_19.chk"
 ----------------------------
 L_a1-e4_D_PSI.inp_extract_19
 ----------------------------
 Charge =  0 Multiplicity = 1

                         Standard orientation:
 ---------------------------------------------------------------------
 Center     Atomic      Atomic             Coordinates (Angstroms)
 Number     Number       Type             X           Y           Z
 ---------------------------------------------------------------------
      1          6           0        2.101488    1.372934   -0.551237
      2          8           0        1.569352    1.079371    0.740630
      3          6           0        3.134901   -0.892507   -0.642329
      4          8           0       -3.311123   -1.055987   -0.226945
      5          6           0        1.276679   -0.287674    0.934597
      6          6           0        2.511569   -1.151132    0.728643
      7          6           0       -2.909914    1.261639    0.362255
      8          8           0        0.278210   -0.745954    0.058867
      9          6           0       -1.403287    1.062706    0.185938
     10          6           0       -3.679029    0.287687   -0.513502
     11          6           0       -1.056984   -0.405940    0.404303
     12          6           0       -1.938472   -1.285508   -0.473791
     13          6           0        3.386912    0.605061   -0.810501
     14          1           0        1.355706    1.129934   -1.313073
     15          1           0        2.266363    2.448078   -0.562405
     16          1           0        2.455073   -1.237916   -1.423833
     17          1           0        4.061556   -1.456026   -0.745594
     18          1           0        0.914939   -0.350613    1.963854
     19          1           0        3.226467   -0.893958    1.512385
     20          1           0        2.236091   -2.197143    0.855156
     21          1           0       -3.192245    2.283766    0.109397
     22          1           0       -3.188432    1.092524    1.404878
     23          1           0       -1.108279    1.334338   -0.832077
     24          1           0       -0.842230    1.694535    0.870462
     25          1           0       -4.750902    0.353916   -0.340027
     26          1           0       -3.484024    0.496012   -1.572652
     27          1           0       -1.234579   -0.670482    1.454042
     28          1           0       -1.744291   -2.336396   -0.269060
     29          1           0       -1.702778   -1.082051   -1.526215
     30          1           0        3.748845    0.834567   -1.813161
     31          1           0        4.148019    0.933878   -0.098741
 ---------------------------------------------------------------------

 SCF Done:  E(RM062X) =  -617.503481009     A.U. after    1 cycles

 The electronic state is 1-A.
 Alpha  occ. eigenvalues --  -19.63429 -19.63157 -19.62763 -10.63550 -10.58845
 Alpha  occ. eigenvalues --  -10.58099 -10.58015 -10.57685 -10.53186 -10.53032
 Alpha  occ. eigenvalues --  -10.52986 -10.52896 -10.52837  -1.20043  -1.16696
 Alpha  occ. eigenvalues --   -1.13552  -0.90990  -0.89599  -0.87445  -0.84373
 Alpha  occ. eigenvalues --   -0.74766  -0.73890  -0.72664  -0.71051  -0.66022
 Alpha  occ. eigenvalues --   -0.63762  -0.60067  -0.58726  -0.57152  -0.55474
 Alpha  occ. eigenvalues --   -0.54438  -0.53222  -0.52083  -0.50321  -0.49824
 Alpha  occ. eigenvalues --   -0.48413  -0.47775  -0.46140  -0.45174  -0.44306
 Alpha  occ. eigenvalues --   -0.43920  -0.42407  -0.41133  -0.40232  -0.39847
 Alpha  occ. eigenvalues --   -0.38294  -0.37710  -0.36432  -0.34964  -0.33376
 Alpha  occ. eigenvalues --   -0.31931
 Alpha virt. eigenvalues --   -0.00048   0.00753   0.00810   0.01058   0.02203
 Alpha virt. eigenvalues --    0.02514   0.02643   0.03321   0.03538   0.04437
 Alpha virt. eigenvalues --    0.04757   0.04906   0.05505   0.05909   0.06978

 Mulliken charges:
               1
     1  C   -0.059010
     2  O   -0.259478
     3  C   -0.291705
     4  O   -0.346058
     5  C   -0.005238
     6  C   -0.435671
     7  C   -0.530464
     8  O   -0.295912
     9  C   -0.194284
    10  C   -0.208935
    11  C   -0.040042
    12  C   -0.278558
    13  C   -0.414424
    14  H    0.125351
    15  H    0.202072
    16  H    0.170022
    17  H    0.186707
    18  H    0.233168
    19  H    0.188032
    20  H    0.185538
    21  H    0.171351
    22  H    0.171828
    23  H    0.216486
    24  H    0.192011
    25  H    0.213217
    26  H    0.135852
    27  H    0.240519
    28  H    0.197985
    29  H    0.193011
    30  H    0.171685
    31  H    0.164945
 Sum of Mulliken charges =  -0.00000

 Dipole moment (field-independent basis, Debye):
    X=              1.3018    Y=              1.2062    Z=             -0.5966  Tot=              1.8723
 Quadrupole moment (field-independent basis, Debye-Ang):
   XX=            -79.5693   YY=            -81.6462   ZZ=            -78.4746
   XY=             -8.1904   XZ=             -0.9168   YZ=             -3.7099

  Exact polarizability: 173.420  -2.642 159.116  -1.790  -2.195 152.683
 Approx polarizability: 145.856  -0.259 142.995  -1.373  -1.118 143.231

 ******    1 imaginary frequencies (negative Signs) ******

                      1                      2                      3
                      A                      A                      A
 Frequencies --    -29.6416                60.5909                98.0245
 Red. masses --      3.3392                 3.7963                 3.7275
 Frc consts  --      0.0017                 0.0082                 0.0211
 IR Inten    --      1.5195                 0.2326                 2.3230

                      4                      5                      6
                      A                      A                      A
 Frequencies --    130.6655               205.2376               238.6374
 Red. masses --      3.0324                 2.8067                 3.0885
 Frc consts  --      0.0305                 0.0697                 0.1036
 IR Inten    --      2.5576                 2.1918                 6.9749

                      7                      8                      9
                      A                      A                      A
 Frequencies --    243.1106               263.0435               334.6344
 Red. masses --      2.0378                 3.2945                 2.7822
 Frc consts  --      0.0710                 0.1343                 0.1836
 IR Inten    --      3.6774                 0.5747                10.4093

                     10                     11                     12
                      A                      A                      A
 Frequencies --    360.5127               388.0779               430.6993
 Red. masses --      2.0338                 2.3322                 3.3654
 Frc consts  --      0.1557                 0.2069                 0.3678
 IR Inten    --      6.9726                16.9768                 4.9587

                     13                     14                     15
                      A                      A                      A
 Frequencies --    455.2538               462.1160               485.8855
 Red. masses --      3.8417                 3.2058                 2.2198
 Frc consts  --      0.4691                 0.4034                 0.3088
 IR Inten    --      4.8804                 1.1241                 0.7031

                     16                     17                     18
                      A                      A                      A
 Frequencies --    530.4776               575.2159               623.0634
 Red. masses --      2.1601                 2.3362                 3.5404
 Frc consts  --      0.3581                 0.4554                 0.8098
 IR Inten    --      4.4877                15.7166                13.3033

                     19                     20                     21
                      A                      A                      A
 Frequencies --    718.4406               826.9840               834.7188
 Red. masses --      2.8934                 2.2005                 1.5409
 Frc consts  --      0.8799                 0.8867                 0.6326
 IR Inten    --      5.7156                 1.2252                 1.7203

                     22                     23                     24
                      A                      A                      A
 Frequencies --    843.5711               875.4041               892.8026
 Red. masses --      3.2756                 1.4089                 2.3443
 Frc consts  --      1.3734                 0.6361                 1.1010
 IR Inten    --      6.8547                11.4938                28.6438

                     25                     26                     27
                      A                      A                      A
 Frequencies --    897.1390               905.0898               933.5163
 Red. masses --      2.4305                 2.4499                 1.6364
 Frc consts  --      1.1525                 1.1824                 0.8402
 IR Inten    --      5.4569                20.2324                23.6739

                     28                     29                     30
                      A                      A                      A
 Frequencies --    943.0979               980.9897               998.0845
 Red. masses --      2.1796                 2.3822                 1.4429
 Frc consts  --      1.1422                 1.3507                 0.8469
 IR Inten    --     44.0183                24.6970                 9.8319

                     31                     32                     33
                      A                      A                      A
 Frequencies --   1030.2869              1043.0827              1059.5236
 Red. masses --      2.1577                 2.2286                 1.7124
 Frc consts  --      1.3494                 1.4286                 1.1326
 IR Inten    --     54.9799                64.1276                39.2131

                     34                     35                     36
                      A                      A                      A
 Frequencies --   1064.1208              1072.0859              1118.7661
 Red. masses --      1.5149                 2.3264                 4.6820
 Frc consts  --      1.0107                 1.5754                 3.4527
 IR Inten    --     61.1593                21.9763               268.3297

                     37                     38                     39
                      A                      A                      A
 Frequencies --   1146.7340              1154.5143              1173.4588
 Red. masses --      2.2836                 2.8874                 3.4748
 Frc consts  --      1.7693                 2.2676                 2.8191
 IR Inten    --      6.1012               114.3504               152.3311

                     40                     41                     42
                      A                      A                      A
 Frequencies --   1175.9944              1189.5514              1210.5435
 Red. masses --      2.6103                 2.7926                 1.4884
 Frc consts  --      2.1269                 2.3282                 1.2850
 IR Inten    --     72.5122                90.4557                36.8765

                     43                     44                     45
                      A                      A                      A
 Frequencies --   1212.7849              1233.3683              1246.6019
 Red. masses --      1.4203                 1.6455                 1.4856
 Frc consts  --      1.2308                 1.4748                 1.3603
 IR Inten    --     27.1729                55.1391                18.1357

                     46                     47                     48
                      A                      A                      A
 Frequencies --   1287.8698              1302.4629              1318.8428
 Red. masses --      1.2199                 1.1815                 1.1563
 Frc consts  --      1.1921                 1.1809                 1.1850
 IR Inten    --     16.6383                16.4239                 9.9337

                     49                     50                     51
                      A                      A                      A
 Frequencies --   1331.1103              1342.6449              1347.9135
 Red. masses --      1.2824                 1.2213                 1.2628
 Frc consts  --      1.3388                 1.2972                 1.3518
 IR Inten    --      7.8455                 3.8366                30.1036

                     52                     53                     54
                      A                      A                      A
 Frequencies --   1360.2871              1382.3121              1386.7304
 Red. masses --      1.3258                 1.4272                 1.4795
 Frc consts  --      1.4455                 1.6067                 1.6763
 IR Inten    --      4.3270                 7.9056                 0.6805

                     55                     56                     57
                      A                      A                      A
 Frequencies --   1390.0656              1397.8898              1401.8342
 Red. masses --      1.5989                 1.4032                 1.3386
 Frc consts  --      1.8203                 1.6155                 1.5499
 IR Inten    --      2.3433                16.7797                 9.6620

                     58                     59                     60
                      A                      A                      A
 Frequencies --   1403.7745              1419.8292              1429.9433
 Red. masses --      1.4905                 1.3938                 1.4138
 Frc consts  --      1.7305                 1.6555                 1.7032
 IR Inten    --     33.0239                14.7534                 9.0505

                     61                     62                     63
                      A                      A                      A
 Frequencies --   1443.4420              1475.9028              1480.2691
 Red. masses --      1.3895                 1.1056                 1.0928
 Frc consts  --      1.7057                 1.4189                 1.4109
 IR Inten    --      6.0446                 5.1252                 8.6136

                     64                     65                     66
                      A                      A                      A
 Frequencies --   1482.2698              1494.1419              1494.8198
 Red. masses --      1.0859                 1.1159                 1.1074
 Frc consts  --      1.4057                 1.4678                 1.4579
 IR Inten    --      7.8372                10.1241                13.9274

                     67                     68                     69
                      A                      A                      A
 Frequencies --   1501.6346              1509.5832              1514.1764
 Red. masses --      1.0857                 1.0939                 1.1015
 Frc consts  --      1.4424                 1.4687                 1.4879
 IR Inten    --      0.8676                 3.6247                 8.6776

                     70                     71                     72
                      A                      A                      A
 Frequencies --   3015.2629              3021.1847              3025.9011
 Red. masses --      1.0738                 1.0707                 1.0776
 Frc consts  --      5.7520                 5.7578                 5.8131
 IR Inten    --     12.8657                72.1829                95.0601

                     73                     74                     75
                      A                      A                      A
 Frequencies --   3055.5075              3057.7848              3063.3925
 Red. masses --      1.0691                 1.0696                 1.0627
 Frc consts  --      5.8807                 5.8922                 5.8756
 IR Inten    --     20.0824                55.5542                44.6477

                     76                     77                     78
                      A                      A                      A
 Frequencies --   3068.5499              3069.3807              3071.7792
 Red. masses --      1.0771                 1.0625                 1.0647
 Frc consts  --      5.9757                 5.8979                 5.9189
 IR Inten    --     17.8476                69.7284                21.3473

                     79                     80                     81
                      A                      A                      A
 Frequencies --   3081.3881              3113.0729              3117.6764
 Red. masses --      1.0687                 1.0977                 1.1009
 Frc consts  --      5.9784                 6.2676                 6.3049
 IR Inten    --     71.7795                37.2603                50.1574

                     82                     83                     84
                      A                      A                      A
 Frequencies --   3118.3818              3131.1878              3133.4587
 Red. masses --      1.1025                 1.1029                 1.0942
 Frc consts  --      6.3169                 6.3707                 6.3299
 IR Inten    --     64.3844                39.5891                50.0822

                     85                     86                     87
                      A                      A                      A
 Frequencies --   3133.7157              3135.5690              3144.3405
 Red. masses --      1.0990                 1.0952                 1.0954
 Frc consts  --      6.3589                 6.3445                 6.3808
 IR Inten    --     48.6655                33.5620                23.5504

 - Thermochemistry -
 -------------------
 Temperature   298.150 Kelvin.  Pressure   1.00000 Atm.
 Atom     1 has atomic number  6 and mass  12.00000

 Molecular mass:   186.12559 amu.
 Principal axes and moments of inertia in atomic units:
                           1         2         3
     Eigenvalues --   962.021794238.621604642.08310
           X            0.99989  -0.01447  -0.00400
           Y            0.01436   0.99956  -0.02591
           Z            0.00437   0.02585   0.99966
 This molecule is an asymmetric top.
 Rotational symmetry number  1.
 Warning -- assumption of classical behavior for rotation
           may cause significant error
 Rotational temperatures (Kelvin)      0.09003     0.02043     0.01866
 Rotational constants (GHZ):           1.87599     0.42578     0.38878
    1 imaginary frequencies ignored.
 Zero-point vibrational energy     736443.8 (Joules/Mol)
                                  176.01429 (Kcal/Mol)
 Warning -- explicit consideration of  16 degrees of freedom as
           vibrations may cause significant error
 Vibrational temperatures:     87.18   141.04   188.00   295.29   343.35
          (Kelvin)            349.78   378.46   481.46   518.70   558.36
                              619.68   655.01   664.88   699.08   763.24
                              827.61   896.45  1033.68  1189.85  1200.97
                             1213.71  1259.51  1284.54  1290.78  1302.22
                             1343.12  1356.91  1411.43  1436.02  1482.35
                             1500.76  1524.42  1531.03  1542.49  1609.65
                             1649.89  1661.09  1688.35  1691.99  1711.50
                             1741.70  1744.93  1774.54  1793.58  1852.96
                             1873.95  1897.52  1915.17  1931.77  1939.35
                             1957.15  1988.84  1995.20  1999.99  2011.25
                             2016.93  2019.72  2042.82  2057.37  2076.79
                             2123.49  2129.78  2132.66  2149.74  2150.71
                             2160.52  2171.95  2178.56  4338.29  4346.81
                             4353.60  4396.19  4399.47  4407.54  4414.96
                             4416.15  4419.61  4433.43  4479.02  4485.64
                             4486.66  4505.08  4508.35  4508.72  4511.38
                             4524.00

 Zero-point correction=                           0.280497 (Hartree/Particle)
 Thermal correction to Energy=                    0.291390
 Thermal correction to Enthalpy=                  0.292334
 Thermal correction to Gibbs Free Energy=         0.243821
 Sum of electronic and zero-point Energies=           -617.222984
 Sum of electronic and thermal Energies=              -617.212091
 Sum of electronic and thermal Enthalpies=            -617.211147
 Sum of electronic and thermal Free Energies=         -617.259660

                     E (Thermal)             CV                S
                      KCal/Mol        Cal/Mol-Kelvin    Cal/Mol-Kelvin
 Total                  182.850             44.772            102.104
 Electronic               0.000              0.000              0.000
 Translational            0.889              2.981             41.570
 Rotational               0.889              2.981             31.315
 Vibrational            181.072             38.810             29.219
 Vibration     1          0.597              1.973              4.438
 Vibration     2          0.603              1.951              3.493
 Vibration     3          0.612              1.923              2.936
 Vibration     4          0.640              1.832              2.086
 Vibration     5          0.657              1.781              1.813
 Vibration     6          0.659              1.774              1.780
 Vibration     7          0.670              1.741              1.641
 Vibration     8          0.716              1.606              1.238
 Vibration     9          0.735              1.554              1.120
 Vibration    10          0.756              1.496              1.008
 Vibration    11          0.792              1.403              0.856
 Vibration    12          0.814              1.349              0.780
 Vibration    13          0.820              1.334              0.760
 Vibration    14          0.842              1.281              0.694
 Vibration    15          0.885              1.183              0.586
 Vibration    16          0.932              1.085              0.494

 Optimization completed.
    -- Stationary point found.
 Normal termination of Gaussian 16 at Sun Nov  4 22:54:18 2018.
