 Gaussian 16, Revision B.01,
 Gaussian 16:  ES64L-G16RevB.01 20-Dec-2017

 ----------------------------------------------------------------------
 #M062X/6-311++G(2d,2p) opt=ModRedundant freq=noraman SCRF=(SMD,solvent
 =water)
 ----------------------------------------------------------------------

 -------------------------------
 4c1_b1_e3_4c1_PHI.inp_extract_8
 -------------------------------
 Symbolic Z-matrix:
 Charge =  0 Multiplicity = 1

 SCF Done:  E(RM062X) =  -617.501058224     A.U. after   12 cycles
 SCF Done:  E(RM062X) =  -617.502602273     A.U. after   10 cycles
 SCF Done:  E(RM062X) =  -617.502740477     A.U. after    9 cycles
 SCF Done:  E(RM062X) =  -617.502808294     A.U. after    9 cycles
 SCF Done:  E(RM062X) =  -617.502810670     A.U. after    7 cycles
 SCF Done:  E(RM062X) =  -617.502810806     A.U. after    7 cycles
 Optimization completed.
    -- Stationary point found.
 Normal termination of Gaussian 16 at Sat Mar  9 07:12:00 2019.

 ----------------------------------------------------------------------
 #N Geom=AllCheck Guess=TCheck SCRF=Check GenChk RM062X/6-311++G(2d,2p)
  Freq
 ----------------------------------------------------------------------

 Structure from the checkpoint file:  "4c1_b1_e3_4c1_PHI.inp_extract_8.chk"
 -------------------------------
 4c1_b1_e3_4c1_PHI.inp_extract_8
 -------------------------------
 Charge =  0 Multiplicity = 1

                         Standard orientation:
 ---------------------------------------------------------------------
 Center     Atomic      Atomic             Coordinates (Angstroms)
 Number     Number       Type             X           Y           Z
 ---------------------------------------------------------------------
      1          6           0        1.701170    1.038188   -0.648099
      2          6           0        3.202437   -0.905375    0.809666
      3          6           0       -2.049883   -1.329739    0.015252
      4          6           0        1.011171   -0.227825   -0.161018
      5          6           0        2.030629   -1.350219   -0.051739
      6          8           0       -1.357818    0.970899   -0.135805
      7          6           0       -3.486290   -0.899741    0.308212
      8          8           0        3.813503    0.270922    0.289399
      9          6           0       -3.490344    0.493420    0.931311
     10          6           0       -1.339089   -0.271387   -0.811403
     11          6           0       -2.693777    1.445094    0.058140
     12          6           0        2.890194    1.354396    0.246931
     13          8           0       -0.006693   -0.653221   -1.073613
     14          1           0        2.050356    0.875725   -1.670567
     15          1           0        1.011382    1.880805   -0.650391
     16          1           0        3.975951   -1.669325    0.842264
     17          1           0        2.865158   -0.709003    1.833753
     18          1           0       -1.489845   -1.454976    0.946464
     19          1           0       -2.020869   -2.273239   -0.529619
     20          1           0        0.573831   -0.053312    0.824381
     21          1           0        1.569899   -2.236912    0.385440
     22          1           0        2.389820   -1.606659   -1.051154
     23          1           0       -3.974517   -1.621889    0.961409
     24          1           0       -4.051081   -0.875582   -0.627861
     25          1           0       -3.037024    0.460133    1.924645
     26          1           0       -4.506108    0.874471    1.040230
     27          1           0       -1.822534   -0.155979   -1.787482
     28          1           0       -3.176021    1.558577   -0.918995
     29          1           0       -2.597240    2.428306    0.512752
     30          1           0        2.549620    1.572792    1.265568
     31          1           0        3.439967    2.216389   -0.124215
 ---------------------------------------------------------------------

 SCF Done:  E(RM062X) =  -617.502810806     A.U. after    1 cycles

 The electronic state is 1-A.
 Alpha  occ. eigenvalues --  -19.63150 -19.62936 -19.62849 -10.63318 -10.58311
 Alpha  occ. eigenvalues --  -10.57630 -10.57557 -10.57513 -10.52457 -10.52359
 Alpha  occ. eigenvalues --  -10.52250 -10.52159 -10.52133  -1.19663  -1.16089
 Alpha  occ. eigenvalues --   -1.13376  -0.90530  -0.89386  -0.85967  -0.84471
 Alpha  occ. eigenvalues --   -0.75132  -0.73123  -0.71990  -0.69491  -0.66118
 Alpha  occ. eigenvalues --   -0.63843  -0.59905  -0.57753  -0.55163  -0.55045
 Alpha  occ. eigenvalues --   -0.54253  -0.52302  -0.51964  -0.51031  -0.49737
 Alpha  occ. eigenvalues --   -0.48148  -0.47300  -0.45567  -0.44967  -0.44074
 Alpha  occ. eigenvalues --   -0.42569  -0.41558  -0.40689  -0.39721  -0.39278
 Alpha  occ. eigenvalues --   -0.38619  -0.37156  -0.36834  -0.34477  -0.33142
 Alpha  occ. eigenvalues --   -0.31027
 Alpha virt. eigenvalues --    0.00418   0.01222   0.01385   0.01479   0.02772
 Alpha virt. eigenvalues --    0.02900   0.03034   0.03792   0.03964   0.04848
 Alpha virt. eigenvalues --    0.05412   0.05556   0.05745   0.05886   0.07478

 Mulliken charges:
               1
     1  C   -0.224040
     2  C   -0.303678
     3  C   -0.037176
     4  C   -0.175797
     5  C   -0.115142
     6  O   -0.373143
     7  C   -0.431324
     8  O   -0.371012
     9  C   -0.273074
    10  C   -0.322073
    11  C   -0.192294
    12  C   -0.322885
    13  O   -0.342099
    14  H    0.195980
    15  H    0.184056
    16  H    0.228894
    17  H    0.161673
    18  H    0.171593
    19  H    0.184758
    20  H    0.286430
    21  H    0.162187
    22  H    0.196112
    23  H    0.173377
    24  H    0.188173
    25  H    0.160341
    26  H    0.181717
    27  H    0.260718
    28  H    0.169292
    29  H    0.196699
    30  H    0.164764
    31  H    0.216974
 Sum of Mulliken charges =  -0.00000

 Dipole moment (field-independent basis, Debye):
    X=             -4.5746    Y=             -0.0309    Z=              1.9887  Tot=              4.9883
 Quadrupole moment (field-independent basis, Debye-Ang):
   XX=            -82.0258   YY=            -76.1277   ZZ=            -80.1792
   XY=             -2.6109   XZ=              2.1283   YZ=             -2.0259

  Exact polarizability: 182.977  -2.589 176.197   1.074   0.879 168.101
 Approx polarizability: 146.847  -1.820 143.908   0.517   1.390 141.370

 ******    1 imaginary frequencies (negative Signs) ******

                      1                      2                      3
                      A                      A                      A
 Frequencies --    -22.4733                54.6179                77.0518
 Red. masses --      4.0287                 3.1540                 3.9642
 Frc consts  --      0.0012                 0.0055                 0.0139
 IR Inten    --      4.5883                 0.2050                 0.6203

                      4                      5                      6
                      A                      A                      A
 Frequencies --    143.3613               211.5907               239.1057
 Red. masses --      3.3330                 3.4829                 1.9042
 Frc consts  --      0.0404                 0.0919                 0.0641
 IR Inten    --      4.4987                 4.6342                 2.9528

                      7                      8                      9
                      A                      A                      A
 Frequencies --    247.7097               275.3230               329.9942
 Red. masses --      2.2254                 3.6612                 3.5550
 Frc consts  --      0.0805                 0.1635                 0.2281
 IR Inten    --      3.6694                 3.4506                13.2180

                     10                     11                     12
                      A                      A                      A
 Frequencies --    351.7951               374.0169               441.1892
 Red. masses --      2.0582                 2.5429                 2.8860
 Frc consts  --      0.1501                 0.2096                 0.3310
 IR Inten    --      2.2202                13.5818                 3.3606

                     13                     14                     15
                      A                      A                      A
 Frequencies --    447.7230               471.2169               483.3912
 Red. masses --      3.1883                 3.4999                 2.4339
 Frc consts  --      0.3766                 0.4579                 0.3351
 IR Inten    --      1.2714                 7.0510                 2.1905

                     16                     17                     18
                      A                      A                      A
 Frequencies --    504.3642               556.0552               614.2852
 Red. masses --      3.3788                 1.7846                 2.1434
 Frc consts  --      0.5064                 0.3251                 0.4765
 IR Inten    --      8.2167                13.0951                18.4393

                     19                     20                     21
                      A                      A                      A
 Frequencies --    665.2101               828.8911               838.4649
 Red. masses --      3.5630                 1.4943                 1.8861
 Frc consts  --      0.9289                 0.6049                 0.7812
 IR Inten    --     14.5713                 2.7000                 3.2976

                     22                     23                     24
                      A                      A                      A
 Frequencies --    845.0787               854.0889               882.6635
 Red. masses --      2.4587                 1.7715                 2.2108
 Frc consts  --      1.0346                 0.7614                 1.0148
 IR Inten    --     12.7909                29.3728                 0.5541

                     25                     26                     27
                      A                      A                      A
 Frequencies --    897.3286               931.3883               949.6737
 Red. masses --      2.4018                 1.8325                 2.2903
 Frc consts  --      1.1394                 0.9366                 1.2170
 IR Inten    --     24.3735                 0.5493                26.4682

                     28                     29                     30
                      A                      A                      A
 Frequencies --    961.0161               980.0231              1001.1366
 Red. masses --      1.8013                 2.3774                 1.4420
 Frc consts  --      0.9802                 1.3453                 0.8515
 IR Inten    --      1.8890                24.2076                15.0120

                     31                     32                     33
                      A                      A                      A
 Frequencies --   1009.3794              1032.2417              1064.9188
 Red. masses --      1.9059                 2.0129                 1.5101
 Frc consts  --      1.1441                 1.2637                 1.0090
 IR Inten    --     46.4426                32.1855                45.6336

                     34                     35                     36
                      A                      A                      A
 Frequencies --   1070.6171              1098.6808              1130.9341
 Red. masses --      2.6361                 2.8351                 3.1391
 Frc consts  --      1.7803                 2.0163                 2.3656
 IR Inten    --     25.3366               105.7426                57.4718

                     37                     38                     39
                      A                      A                      A
 Frequencies --   1144.2197              1154.1912              1169.7159
 Red. masses --      3.1681                 2.3253                 2.3811
 Frc consts  --      2.4438                 1.8251                 1.9195
 IR Inten    --    173.7702                19.4836                50.3331

                     40                     41                     42
                      A                      A                      A
 Frequencies --   1185.3760              1194.2555              1202.0018
 Red. masses --      1.9189                 1.6328                 1.4849
 Frc consts  --      1.5886                 1.3721                 1.2641
 IR Inten    --     62.3706                62.0626                37.6494

                     43                     44                     45
                      A                      A                      A
 Frequencies --   1243.3760              1259.8381              1268.9120
 Red. masses --      1.7223                 3.5100                 1.3192
 Frc consts  --      1.5688                 3.2824                 1.2515
 IR Inten    --     59.8161               425.2894                26.0989

                     46                     47                     48
                      A                      A                      A
 Frequencies --   1277.7231              1282.6046              1322.9412
 Red. masses --      1.3006                 1.2896                 1.3733
 Frc consts  --      1.2510                 1.2499                 1.4161
 IR Inten    --     39.3523                17.3891                18.7714

                     49                     50                     51
                      A                      A                      A
 Frequencies --   1323.1693              1335.0234              1349.1834
 Red. masses --      1.3295                 1.2849                 1.3140
 Frc consts  --      1.3714                 1.3493                 1.4092
 IR Inten    --     41.9098                 6.9924                12.3916

                     52                     53                     54
                      A                      A                      A
 Frequencies --   1362.1261              1366.9489              1386.1161
 Red. masses --      1.1971                 1.4087                 1.5189
 Frc consts  --      1.3087                 1.5509                 1.7194
 IR Inten    --      9.9701                 0.2701                 5.1878

                     55                     56                     57
                      A                      A                      A
 Frequencies --   1386.3273              1395.8877              1400.3314
 Red. masses --      1.3975                 1.3032                 1.4306
 Frc consts  --      1.5825                 1.4961                 1.6529
 IR Inten    --      5.6294                16.8717                24.3091

                     58                     59                     60
                      A                      A                      A
 Frequencies --   1412.3928              1426.0222              1427.8978
 Red. masses --      1.4330                 1.3774                 1.3586
 Frc consts  --      1.6843                 1.6503                 1.6321
 IR Inten    --     96.4382                21.3557                 8.3884

                     61                     62                     63
                      A                      A                      A
 Frequencies --   1432.9751              1468.1318              1468.3720
 Red. masses --      1.4986                 1.1004                 1.1153
 Frc consts  --      1.8131                 1.3974                 1.4169
 IR Inten    --     37.3030                 4.7324                 3.7358

                     64                     65                     66
                      A                      A                      A
 Frequencies --   1470.8702              1480.5148              1487.1242
 Red. masses --      1.1022                 1.1214                 1.1204
 Frc consts  --      1.4050                 1.4482                 1.4599
 IR Inten    --      9.7370                 9.7599                27.0154

                     67                     68                     69
                      A                      A                      A
 Frequencies --   1497.4516              1504.5719              1505.8053
 Red. masses --      1.0823                 1.0995                 1.1019
 Frc consts  --      1.4299                 1.4665                 1.4721
 IR Inten    --      3.1158                 7.5088                 9.0370

                     70                     71                     72
                      A                      A                      A
 Frequencies --   3033.5293              3035.2042              3039.1519
 Red. masses --      1.0703                 1.0703                 1.0705
 Frc consts  --      5.8029                 5.8092                 5.8253
 IR Inten    --     57.0004                87.7767                52.0328

                     73                     74                     75
                      A                      A                      A
 Frequencies --   3045.4534              3057.4127              3063.4922
 Red. masses --      1.0838                 1.0693                 1.0638
 Frc consts  --      5.9225                 5.8890                 5.8824
 IR Inten    --     77.6410                12.4432                65.0689

                     76                     77                     78
                      A                      A                      A
 Frequencies --   3068.0273              3069.3363              3071.8626
 Red. masses --      1.0626                 1.0618                 1.0684
 Frc consts  --      5.8930                 5.8937                 5.9402
 IR Inten    --     19.3395                51.9445                 8.6681

                     79                     80                     81
                      A                      A                      A
 Frequencies --   3084.1028              3117.7249              3121.4308
 Red. masses --      1.0782                 1.0959                 1.1020
 Frc consts  --      6.0422                 6.2759                 6.3260
 IR Inten    --     59.1762                41.6071                52.7051

                     82                     83                     84
                      A                      A                      A
 Frequencies --   3121.5552              3124.5254              3140.0164
 Red. masses --      1.1034                 1.1021                 1.0948
 Frc consts  --      6.3349                 6.3391                 6.3601
 IR Inten    --     57.2027                59.3773                67.0945

                     85                     86                     87
                      A                      A                      A
 Frequencies --   3141.1480              3142.1260              3143.1378
 Red. masses --      1.0993                 1.0960                 1.0964
 Frc consts  --      6.3908                 6.3755                 6.3817
 IR Inten    --     12.5733                37.0274                33.4089

 - Thermochemistry -
 -------------------
 Temperature   298.150 Kelvin.  Pressure   1.00000 Atm.
 Atom     1 has atomic number  6 and mass  12.00000

 Molecular mass:   186.12559 amu.
 Principal axes and moments of inertia in atomic units:
                           1         2         3
     Eigenvalues --   961.145324478.804354896.83238
           X            1.00000  -0.00028  -0.00136
           Y            0.00025   0.99983  -0.01865
           Z            0.00137   0.01865   0.99983
 This molecule is an asymmetric top.
 Rotational symmetry number  1.
 Warning -- assumption of classical behavior for rotation
           may cause significant error
 Rotational temperatures (Kelvin)      0.09012     0.01934     0.01769
 Rotational constants (GHZ):           1.87770     0.40295     0.36855
    1 imaginary frequencies ignored.
 Zero-point vibrational energy     736158.9 (Joules/Mol)
                                  175.94621 (Kcal/Mol)
 Warning -- explicit consideration of  17 degrees of freedom as
           vibrations may cause significant error
 Vibrational temperatures:     78.58   110.86   206.26   304.43   344.02
          (Kelvin)            356.40   396.13   474.79   506.15   538.13
                              634.77   644.17   677.98   695.49   725.67
                              800.04   883.82   957.09  1192.59  1206.36
                             1215.88  1228.84  1269.96  1291.06  1340.06
                             1366.37  1382.69  1410.03  1440.41  1452.27
                             1485.17  1532.18  1540.38  1580.76  1627.16
                             1646.28  1660.62  1682.96  1705.49  1718.27
                             1729.41  1788.94  1812.63  1825.68  1838.36
                             1845.38  1903.42  1903.75  1920.80  1941.17
                             1959.80  1966.73  1994.31  1994.62  2008.37
                             2014.76  2032.12  2051.73  2054.43  2061.73
                             2112.31  2112.66  2116.25  2130.13  2139.64
                             2154.50  2164.74  2166.52  4364.57  4366.98
                             4372.66  4381.73  4398.94  4407.68  4414.21
                             4416.09  4419.73  4437.34  4485.71  4491.04
                             4491.22  4495.50  4517.78  4519.41  4520.82
                             4522.27

 Zero-point correction=                           0.280388 (Hartree/Particle)
 Thermal correction to Energy=                    0.291349
 Thermal correction to Enthalpy=                  0.292293
 Thermal correction to Gibbs Free Energy=         0.243457
 Sum of electronic and zero-point Energies=           -617.222423
 Sum of electronic and thermal Energies=              -617.211462
 Sum of electronic and thermal Enthalpies=            -617.210518
 Sum of electronic and thermal Free Energies=         -617.259353

                     E (Thermal)             CV                S
                      KCal/Mol        Cal/Mol-Kelvin    Cal/Mol-Kelvin
 Total                  182.824             44.937            102.783
 Electronic               0.000              0.000              0.000
 Translational            0.889              2.981             41.570
 Rotational               0.889              2.981             31.422
 Vibrational            181.047             38.975             29.791
 Vibration     1          0.596              1.976              4.643
 Vibration     2          0.599              1.964              3.965
 Vibration     3          0.616              1.910              2.759
 Vibration     4          0.643              1.823              2.030
 Vibration     5          0.657              1.781              1.810
 Vibration     6          0.661              1.767              1.747
 Vibration     7          0.677              1.719              1.563
 Vibration     8          0.713              1.616              1.260
 Vibration     9          0.728              1.572              1.158
 Vibration    10          0.745              1.525              1.063
 Vibration    11          0.801              1.380              0.823
 Vibration    12          0.807              1.366              0.803
 Vibration    13          0.828              1.314              0.734
 Vibration    14          0.840              1.287              0.701
 Vibration    15          0.860              1.240              0.647
 Vibration    16          0.912              1.126              0.532
 Vibration    17          0.974              1.002              0.426

 Optimization completed.
    -- Stationary point found.
 Normal termination of Gaussian 16 at Sat Mar  9 08:15:08 2019.
