 Gaussian 16, Revision B.01,
 Gaussian 16:  ES64L-G16RevB.01 20-Dec-2017

 ----------------------------------------------------------------------
 #M062X/6-311++G(2d,2p) opt=ModRedundant freq=noraman SCRF=(SMD,solvent
 =water)
 ----------------------------------------------------------------------

 -------------------------------
 4c1_b1_e3_4c1_PHI.inp_extract_1
 -------------------------------
 Symbolic Z-matrix:
 Charge =  0 Multiplicity = 1

 SCF Done:  E(RM062X) =  -617.508583211     A.U. after   12 cycles
 SCF Done:  E(RM062X) =  -617.510123638     A.U. after   10 cycles
 SCF Done:  E(RM062X) =  -617.510235662     A.U. after    9 cycles
 SCF Done:  E(RM062X) =  -617.510253913     A.U. after    9 cycles
 SCF Done:  E(RM062X) =  -617.510262033     A.U. after    8 cycles
 SCF Done:  E(RM062X) =  -617.510265740     A.U. after    8 cycles
 SCF Done:  E(RM062X) =  -617.510266511     A.U. after    7 cycles
 Optimization completed.
    -- Stationary point found.
 Normal termination of Gaussian 16 at Sat Mar  9 05:22:28 2019.

 ----------------------------------------------------------------------
 #N Geom=AllCheck Guess=TCheck SCRF=Check GenChk RM062X/6-311++G(2d,2p)
  Freq
 ----------------------------------------------------------------------

 Structure from the checkpoint file:  "4c1_b1_e3_4c1_PHI.inp_extract_1.chk"
 -------------------------------
 4c1_b1_e3_4c1_PHI.inp_extract_1
 -------------------------------
 Charge =  0 Multiplicity = 1

                         Standard orientation:
 ---------------------------------------------------------------------
 Center     Atomic      Atomic             Coordinates (Angstroms)
 Number     Number       Type             X           Y           Z
 ---------------------------------------------------------------------
      1          6           0        1.757495    1.131476    0.483641
      2          6           0        3.454378   -1.015043   -0.335582
      3          6           0       -2.280679    0.962343   -0.927600
      4          6           0        1.143971   -0.120281   -0.127446
      5          6           0        2.141297   -0.774636   -1.065073
      6          8           0       -1.586375   -1.055320    0.209502
      7          6           0       -3.596620    0.956956   -0.149451
      8          8           0        3.983617    0.195482    0.195312
      9          6           0       -3.939662   -0.464004    0.291976
     10          6           0       -1.202445    0.273499   -0.120369
     11          6           0       -2.759607   -1.074298    1.026543
     12          6           0        3.087735    0.782058    1.133972
     13          8           0       -0.033835    0.193654   -0.881935
     14          1           0        1.921745    1.865946   -0.308023
     15          1           0        1.095024    1.571549    1.229656
     16          1           0        4.207622   -1.414019   -1.010899
     17          1           0        3.307070   -1.729415    0.482069
     18          1           0       -2.391671    0.420004   -1.869605
     19          1           0       -1.957984    1.978600   -1.152744
     20          1           0        0.880903   -0.825936    0.665428
     21          1           0        1.749177   -1.721676   -1.436818
     22          1           0        2.314499   -0.114563   -1.918193
     23          1           0       -4.395168    1.378352   -0.758511
     24          1           0       -3.493226    1.592216    0.734231
     25          1           0       -4.170074   -1.080262   -0.580008
     26          1           0       -4.812237   -0.471061    0.945781
     27          1           0       -1.016160    0.813936    0.817264
     28          1           0       -2.559988   -0.521408    1.951348
     29          1           0       -2.934646   -2.117621    1.278918
     30          1           0        2.932572    0.084324    1.964587
     31          1           0        3.580109    1.672099    1.518820
 ---------------------------------------------------------------------

 SCF Done:  E(RM062X) =  -617.510266511     A.U. after    1 cycles

 The electronic state is 1-A.
 Alpha  occ. eigenvalues --  -19.63579 -19.62927 -19.62915 -10.63200 -10.58410
 Alpha  occ. eigenvalues --  -10.57638 -10.57635 -10.57493 -10.52544 -10.52524
 Alpha  occ. eigenvalues --  -10.52451 -10.52407 -10.52234  -1.19959  -1.16170
 Alpha  occ. eigenvalues --   -1.13598  -0.90737  -0.89438  -0.86124  -0.84522
 Alpha  occ. eigenvalues --   -0.74789  -0.72727  -0.72510  -0.69840  -0.65671
 Alpha  occ. eigenvalues --   -0.64577  -0.59941  -0.57515  -0.56922  -0.54332
 Alpha  occ. eigenvalues --   -0.54219  -0.52719  -0.51755  -0.50471  -0.50254
 Alpha  occ. eigenvalues --   -0.49412  -0.46341  -0.45568  -0.45047  -0.44130
 Alpha  occ. eigenvalues --   -0.42523  -0.41480  -0.40306  -0.39995  -0.39145
 Alpha  occ. eigenvalues --   -0.39018  -0.37298  -0.36976  -0.34263  -0.33156
 Alpha  occ. eigenvalues --   -0.32519
 Alpha virt. eigenvalues --    0.00484   0.01288   0.01378   0.01429   0.02725
 Alpha virt. eigenvalues --    0.02851   0.02913   0.03969   0.04049   0.04857
 Alpha virt. eigenvalues --    0.05192   0.05323   0.05821   0.05902   0.07281

 Mulliken charges:
               1
     1  C   -0.106958
     2  C   -0.311452
     3  C   -0.216952
     4  C   -0.319463
     5  C   -0.113032
     6  O   -0.404524
     7  C   -0.408114
     8  O   -0.364966
     9  C   -0.341951
    10  C   -0.046874
    11  C   -0.136686
    12  C   -0.371378
    13  O   -0.341635
    14  H    0.206688
    15  H    0.156140
    16  H    0.225315
    17  H    0.160354
    18  H    0.199468
    19  H    0.172117
    20  H    0.283116
    21  H    0.173431
    22  H    0.194313
    23  H    0.202362
    24  H    0.176001
    25  H    0.160292
    26  H    0.182412
    27  H    0.252756
    28  H    0.152696
    29  H    0.205404
    30  H    0.168286
    31  H    0.212834
 Sum of Mulliken charges =  -0.00000

 Dipole moment (field-independent basis, Debye):
    X=             -3.2194    Y=              0.7380    Z=              3.0664  Tot=              4.5069
 Quadrupole moment (field-independent basis, Debye-Ang):
   XX=            -82.2132   YY=            -77.9863   ZZ=            -78.2507
   XY=             -5.1667   XZ=             -1.7538   YZ=              1.2604

  Exact polarizability: 184.330  -0.091 172.140  -2.110   0.817 171.665
 Approx polarizability: 146.256   0.804 143.095  -2.329   0.720 143.310

                      1                      2                      3
                      A                      A                      A
 Frequencies --     35.0462                51.8512                72.4441
 Red. masses --      3.0277                 4.3026                 4.0451
 Frc consts  --      0.0022                 0.0068                 0.0125
 IR Inten    --      1.0629                 2.3498                 0.2987

                      4                      5                      6
                      A                      A                      A
 Frequencies --    157.4944               192.4581               241.1443
 Red. masses --      3.4670                 3.6126                 1.8424
 Frc consts  --      0.0507                 0.0788                 0.0631
 IR Inten    --      8.2461                 3.1624                 0.5387

                      7                      8                      9
                      A                      A                      A
 Frequencies --    245.1701               273.5206               338.9752
 Red. masses --      2.4139                 3.3911                 2.1118
 Frc consts  --      0.0855                 0.1495                 0.1430
 IR Inten    --      7.1619                 2.3046                 7.9356

                     10                     11                     12
                      A                      A                      A
 Frequencies --    362.4999               395.1250               442.0212
 Red. masses --      2.4065                 3.2435                 4.0938
 Frc consts  --      0.1863                 0.2984                 0.4713
 IR Inten    --     16.0316                 5.5160                 6.2923

                     13                     14                     15
                      A                      A                      A
 Frequencies --    445.8560               481.5841               492.5757
 Red. masses --      2.3533                 2.9664                 3.4846
 Frc consts  --      0.2756                 0.4053                 0.4981
 IR Inten    --      1.4384                 0.3227                 1.5279

                     16                     17                     18
                      A                      A                      A
 Frequencies --    513.8008               550.8323               593.3712
 Red. masses --      2.8206                 2.3413                 1.9496
 Frc consts  --      0.4387                 0.4185                 0.4044
 IR Inten    --      3.5298                 1.4388                12.0124

                     19                     20                     21
                      A                      A                      A
 Frequencies --    668.1267               831.7157               832.5664
 Red. masses --      2.8903                 1.5850                 1.7236
 Frc consts  --      0.7602                 0.6460                 0.7039
 IR Inten    --     28.5723                 1.8765                15.1590

                     22                     23                     24
                      A                      A                      A
 Frequencies --    844.7112               862.8222               883.5588
 Red. masses --      2.6019                 1.9883                 1.8804
 Frc consts  --      1.0938                 0.8721                 0.8649
 IR Inten    --     15.4832                10.9252                 8.5516

                     25                     26                     27
                      A                      A                      A
 Frequencies --    899.8873               932.5035               935.3003
 Red. masses --      2.4636                 2.3301                 1.8021
 Frc consts  --      1.1754                 1.1938                 0.9288
 IR Inten    --     29.5421                56.5794                 3.4131

                     28                     29                     30
                      A                      A                      A
 Frequencies --    959.7709               993.4556              1003.8491
 Red. masses --      2.1303                 1.7641                 1.4655
 Frc consts  --      1.1562                 1.0258                 0.8701
 IR Inten    --     17.0909                33.6766                16.8601

                     31                     32                     33
                      A                      A                      A
 Frequencies --   1016.6440              1035.1529              1056.5468
 Red. masses --      2.0268                 2.1562                 1.5623
 Frc consts  --      1.2342                 1.3613                 1.0275
 IR Inten    --     19.1765                42.8050               117.6666

                     34                     35                     36
                      A                      A                      A
 Frequencies --   1092.8065              1098.6069              1117.4762
 Red. masses --      2.5324                 3.1770                 4.2425
 Frc consts  --      1.7819                 2.2592                 3.1214
 IR Inten    --     63.9305                40.1252               286.5043

                     37                     38                     39
                      A                      A                      A
 Frequencies --   1131.3631              1156.7046              1170.6567
 Red. masses --      3.2125                 2.3183                 2.5923
 Frc consts  --      2.4227                 1.8275                 2.0931
 IR Inten    --     73.5996                26.6565                81.3251

                     40                     41                     42
                      A                      A                      A
 Frequencies --   1183.9406              1195.9004              1205.4720
 Red. masses --      1.9664                 1.5112                 1.5522
 Frc consts  --      1.6240                 1.2734                 1.3290
 IR Inten    --     62.2300                43.1708                71.1297

                     43                     44                     45
                      A                      A                      A
 Frequencies --   1222.3082              1239.5261              1271.9399
 Red. masses --      3.5956                 1.6250                 1.3037
 Frc consts  --      3.1650                 1.4710                 1.2427
 IR Inten    --    238.1213                47.0232                22.3836

                     46                     47                     48
                      A                      A                      A
 Frequencies --   1278.8681              1286.2286              1313.8576
 Red. masses --      1.2342                 1.3026                 1.1985
 Frc consts  --      1.1893                 1.2697                 1.2189
 IR Inten    --     13.4142                 6.7105                23.0273

                     49                     50                     51
                      A                      A                      A
 Frequencies --   1324.7994              1339.8221              1347.8968
 Red. masses --      1.3790                 1.3075                 1.2945
 Frc consts  --      1.4260                 1.3829                 1.3857
 IR Inten    --     11.8641                 4.8235                 1.8465

                     52                     53                     54
                      A                      A                      A
 Frequencies --   1362.5333              1368.0281              1385.7940
 Red. masses --      1.1960                 1.4357                 1.5101
 Frc consts  --      1.3082                 1.5831                 1.7086
 IR Inten    --     14.9299                 1.5518                 4.3964

                     55                     56                     57
                      A                      A                      A
 Frequencies --   1389.4155              1397.0292              1403.6405
 Red. masses --      1.3429                 1.2563                 1.4445
 Frc consts  --      1.5274                 1.4446                 1.6768
 IR Inten    --     12.2335                34.4454                20.8072

                     58                     59                     60
                      A                      A                      A
 Frequencies --   1410.0467              1421.6230              1430.4625
 Red. masses --      1.5191                 1.3261                 1.3403
 Frc consts  --      1.7795                 1.5791                 1.6159
 IR Inten    --     76.1349                14.7358                 2.6736

                     61                     62                     63
                      A                      A                      A
 Frequencies --   1447.8553              1468.7001              1472.3165
 Red. masses --      1.4916                 1.1006                 1.1174
 Frc consts  --      1.8423                 1.3987                 1.4272
 IR Inten    --     27.8504                 5.5065                 3.6201

                     64                     65                     66
                      A                      A                      A
 Frequencies --   1473.1219              1482.6323              1488.8143
 Red. masses --      1.1096                 1.1299                 1.1334
 Frc consts  --      1.4187                 1.4633                 1.4802
 IR Inten    --      9.8432                 8.0657                28.5945

                     67                     68                     69
                      A                      A                      A
 Frequencies --   1500.0618              1505.1370              1508.3044
 Red. masses --      1.0831                 1.0949                 1.1014
 Frc consts  --      1.4359                 1.4614                 1.4762
 IR Inten    --      3.2023                 5.2011                 7.9826

                     70                     71                     72
                      A                      A                      A
 Frequencies --   3020.2428              3035.5073              3036.1669
 Red. masses --      1.0825                 1.0702                 1.0702
 Frc consts  --      5.8177                 5.8098                 5.8128
 IR Inten    --     60.3292                52.5882                78.5872

                     73                     74                     75
                      A                      A                      A
 Frequencies --   3037.2880              3060.8170              3063.6148
 Red. masses --      1.0703                 1.0686                 1.0789
 Frc consts  --      5.8175                 5.8983                 5.9662
 IR Inten    --     81.8113                23.1312                 1.6531

                     76                     77                     78
                      A                      A                      A
 Frequencies --   3069.3070              3069.9018              3071.4227
 Red. masses --      1.0617                 1.0617                 1.0617
 Frc consts  --      5.8930                 5.8954                 5.9011
 IR Inten    --     37.8538                 7.5171                58.9254

                     79                     80                     81
                      A                      A                      A
 Frequencies --   3075.5746              3118.0306              3121.4214
 Red. masses --      1.0659                 1.0972                 1.1017
 Frc consts  --      5.9405                 6.2849                 6.3246
 IR Inten    --     68.2780                39.4907                60.2271

                     82                     83                     84
                      A                      A                      A
 Frequencies --   3124.6190              3126.5904              3128.9374
 Red. masses --      1.1025                 1.1033                 1.1031
 Frc consts  --      6.3420                 6.3548                 6.3632
 IR Inten    --     38.2829                52.7558                51.1311

                     85                     86                     87
                      A                      A                      A
 Frequencies --   3141.8229              3142.0333              3143.9773
 Red. masses --      1.0953                 1.0958                 1.0959
 Frc consts  --      6.3703                 6.3740                 6.3823
 IR Inten    --     43.6234                37.4304                33.9048

 - Thermochemistry -
 -------------------
 Temperature   298.150 Kelvin.  Pressure   1.00000 Atm.
 Atom     1 has atomic number  6 and mass  12.00000

 Molecular mass:   186.12559 amu.
 Principal axes and moments of inertia in atomic units:
                           1         2         3
     Eigenvalues --   836.014245126.124125246.22525
           X            0.99998  -0.00588  -0.00126
           Y            0.00592   0.99954   0.02967
           Z            0.00109  -0.02968   0.99956
 This molecule is an asymmetric top.
 Rotational symmetry number  1.
 Warning -- assumption of classical behavior for rotation
           may cause significant error
 Rotational temperatures (Kelvin)      0.10360     0.01690     0.01651
 Rotational constants (GHZ):           2.15874     0.35207     0.34401
 Zero-point vibrational energy     736441.2 (Joules/Mol)
                                  176.01366 (Kcal/Mol)
 Warning -- explicit consideration of  18 degrees of freedom as
           vibrations may cause significant error
 Vibrational temperatures:     50.42    74.60   104.23   226.60   276.90
          (Kelvin)            346.95   352.75   393.54   487.71   521.56
                              568.50   635.97   641.49   692.89   708.71
                              739.24   792.52   853.73   961.29  1196.65
                             1197.88  1215.35  1241.41  1271.24  1294.74
                             1341.66  1345.69  1380.90  1429.36  1444.32
                             1462.72  1489.35  1520.14  1572.30  1580.65
                             1607.80  1627.78  1664.24  1684.31  1703.43
                             1720.63  1734.41  1758.63  1783.40  1830.04
                             1840.01  1850.60  1890.35  1906.09  1927.71
                             1939.32  1960.38  1968.29  1993.85  1999.06
                             2010.01  2019.53  2028.74  2045.40  2058.12
                             2083.14  2113.13  2118.34  2119.49  2133.18
                             2142.07  2158.25  2165.56  2170.11  4345.46
                             4367.42  4368.37  4369.98  4403.83  4407.86
                             4416.05  4416.90  4419.09  4425.07  4486.15
                             4491.03  4495.63  4498.47  4501.84  4520.38
                             4520.69  4523.48

 Zero-point correction=                           0.280496 (Hartree/Particle)
 Thermal correction to Energy=                    0.292294
 Thermal correction to Enthalpy=                  0.293238
 Thermal correction to Gibbs Free Energy=         0.241736
 Sum of electronic and zero-point Energies=           -617.229771
 Sum of electronic and thermal Energies=              -617.217973
 Sum of electronic and thermal Enthalpies=            -617.217029
 Sum of electronic and thermal Free Energies=         -617.268531

                     E (Thermal)             CV                S
                      KCal/Mol        Cal/Mol-Kelvin    Cal/Mol-Kelvin
 Total                  183.417             46.833            108.395
 Electronic               0.000              0.000              0.000
 Translational            0.889              2.981             41.570
 Rotational               0.889              2.981             31.486
 Vibrational            181.639             40.872             35.339
 Vibration     1          0.594              1.982              5.521
 Vibration     2          0.596              1.977              4.746
 Vibration     3          0.599              1.967              4.086
 Vibration     4          0.621              1.894              2.580
 Vibration     5          0.634              1.850              2.204
 Vibration     6          0.658              1.777              1.794
 Vibration     7          0.660              1.771              1.765
 Vibration     8          0.676              1.722              1.574
 Vibration     9          0.719              1.598              1.217
 Vibration    10          0.736              1.549              1.111
 Vibration    11          0.762              1.481              0.981
 Vibration    12          0.802              1.378              0.820
 Vibration    13          0.805              1.370              0.808
 Vibration    14          0.838              1.291              0.706
 Vibration    15          0.848              1.266              0.677
 Vibration    16          0.869              1.219              0.625
 Vibration    17          0.906              1.138              0.542
 Vibration    18          0.951              1.046              0.461

 Optimization completed.
    -- Stationary point found.
 Normal termination of Gaussian 16 at Sat Mar  9 06:26:00 2019.
