 Gaussian 16, Revision B.01,
 Gaussian 16:  ES64L-G16RevB.01 20-Dec-2017

 ----------------------------------------------------------------------
 #M062X/6-311++G(2d,2p) opt=ModRedundant freq=noraman SCRF=(SMD,solvent
 =water)
 ----------------------------------------------------------------------

 --------------------------------
 4c1_b1_e3_4c1_PHI.inp_extract_18
 --------------------------------
 Symbolic Z-matrix:
 Charge =  0 Multiplicity = 1

 SCF Done:  E(RM062X) =  -617.504429017     A.U. after   12 cycles
 SCF Done:  E(RM062X) =  -617.506100896     A.U. after   10 cycles
 SCF Done:  E(RM062X) =  -617.506342006     A.U. after   10 cycles
 SCF Done:  E(RM062X) =  -617.506407585     A.U. after    9 cycles
 SCF Done:  E(RM062X) =  -617.506413392     A.U. after    8 cycles
 SCF Done:  E(RM062X) =  -617.506413717     A.U. after    7 cycles
 Optimization completed.
    -- Stationary point found.
 Normal termination of Gaussian 16 at Sat Mar  9 09:26:56 2019.

 ----------------------------------------------------------------------
 #N Geom=AllCheck Guess=TCheck SCRF=Check GenChk RM062X/6-311++G(2d,2p)
  Freq
 ----------------------------------------------------------------------

 Structure from the checkpoint file:  "4c1_b1_e3_4c1_PHI.inp_extract_18.chk"
 --------------------------------
 4c1_b1_e3_4c1_PHI.inp_extract_18
 --------------------------------
 Charge =  0 Multiplicity = 1

                         Standard orientation:
 ---------------------------------------------------------------------
 Center     Atomic      Atomic             Coordinates (Angstroms)
 Number     Number       Type             X           Y           Z
 ---------------------------------------------------------------------
      1          6           0       -2.279530   -1.244974    0.486457
      2          6           0       -2.910236    1.332398   -0.549212
      3          6           0        1.587500    0.717591    0.894327
      4          6           0       -1.168024   -0.226931    0.298538
      5          6           0       -1.536599    0.736626   -0.822980
      6          8           0        2.160943   -1.210126   -0.448535
      7          6           0        2.947098    1.343461    0.579292
      8          8           0       -3.903991    0.324266   -0.405939
      9          6           0        3.966108    0.254920    0.256372
     10          6           0        1.182416   -0.213555   -0.233721
     11          6           0        3.418268   -0.648430   -0.832880
     12          6           0       -3.607355   -0.534627    0.690094
     13          8           0        0.024290   -0.969138    0.037813
     14          1           0       -2.338031   -1.875289   -0.403563
     15          1           0       -2.066880   -1.881688    1.345686
     16          1           0       -3.227483    1.967280   -1.373198
     17          1           0       -2.881412    1.937818    0.363871
     18          1           0        1.636008    0.131492    1.815487
     19          1           0        0.833239    1.494208    1.020535
     20          1           0       -1.046386    0.336873    1.229198
     21          1           0       -0.816112    1.551665   -0.902003
     22          1           0       -1.550374    0.195195   -1.771965
     23          1           0        3.280633    1.955082    1.416482
     24          1           0        2.844005    2.005994   -0.284397
     25          1           0        4.168197   -0.344731    1.146714
     26          1           0        4.910103    0.686322   -0.077595
     27          1           0        1.056127    0.351781   -1.166546
     28          1           0        3.286835   -0.085459   -1.763444
     29          1           0        4.074115   -1.493351   -1.028816
     30          1           0       -3.585688    0.056735    1.612229
     31          1           0       -4.424711   -1.248817    0.756893
 ---------------------------------------------------------------------

 SCF Done:  E(RM062X) =  -617.506413717     A.U. after    1 cycles

 The electronic state is 1-A.
 Alpha  occ. eigenvalues --  -19.63354 -19.63273 -19.62931 -10.63342 -10.58637
 Alpha  occ. eigenvalues --  -10.57691 -10.57630 -10.57585 -10.52584 -10.52581
 Alpha  occ. eigenvalues --  -10.52539 -10.52411 -10.52250  -1.19994  -1.16231
 Alpha  occ. eigenvalues --   -1.13733  -0.90193  -0.89811  -0.86233  -0.84688
 Alpha  occ. eigenvalues --   -0.74939  -0.73627  -0.72190  -0.69523  -0.65743
 Alpha  occ. eigenvalues --   -0.64314  -0.60028  -0.57467  -0.56250  -0.54881
 Alpha  occ. eigenvalues --   -0.54311  -0.52655  -0.51661  -0.50959  -0.50181
 Alpha  occ. eigenvalues --   -0.48961  -0.47497  -0.45552  -0.45237  -0.43867
 Alpha  occ. eigenvalues --   -0.43210  -0.41398  -0.41180  -0.39900  -0.38993
 Alpha  occ. eigenvalues --   -0.38197  -0.37449  -0.36623  -0.34844  -0.33116
 Alpha  occ. eigenvalues --   -0.31824
 Alpha virt. eigenvalues --    0.00507   0.01293   0.01305   0.01622   0.02765
 Alpha virt. eigenvalues --    0.02914   0.02957   0.04115   0.04179   0.04760
 Alpha virt. eigenvalues --    0.05432   0.05578   0.05677   0.06193   0.07533

 Mulliken charges:
               1
     1  C   -0.237267
     2  C   -0.411236
     3  C   -0.216315
     4  C   -0.302333
     5  C   -0.091266
     6  O   -0.423909
     7  C   -0.435125
     8  O   -0.370465
     9  C   -0.340018
    10  C   -0.012380
    11  C   -0.090734
    12  C   -0.298456
    13  O   -0.415001
    14  H    0.196365
    15  H    0.183246
    16  H    0.214765
    17  H    0.177466
    18  H    0.228568
    19  H    0.182160
    20  H    0.288718
    21  H    0.185196
    22  H    0.229113
    23  H    0.171712
    24  H    0.189204
    25  H    0.165874
    26  H    0.185908
    27  H    0.300190
    28  H    0.142443
    29  H    0.218818
    30  H    0.154454
    31  H    0.230303
 Sum of Mulliken charges =   0.00000

 Dipole moment (field-independent basis, Debye):
    X=              2.2568    Y=              4.6057    Z=              1.2373  Tot=              5.2761
 Quadrupole moment (field-independent basis, Debye-Ang):
   XX=            -81.0759   YY=            -82.4936   ZZ=            -77.3703
   XY=              5.6198   XZ=             -6.9068   YZ=             -1.8129

  Exact polarizability: 186.704   0.309 172.456  -3.859  -1.951 168.331
 Approx polarizability: 147.819   0.282 143.781  -1.796  -1.680 140.958

                      1                      2                      3
                      A                      A                      A
 Frequencies --     42.5813                52.2613                96.7961
 Red. masses --      3.3717                 3.8380                 3.4764
 Frc consts  --      0.0036                 0.0062                 0.0192
 IR Inten    --      0.5911                 1.3470                 0.4663

                      4                      5                      6
                      A                      A                      A
 Frequencies --    159.7172               191.3386               243.6773
 Red. masses --      3.5948                 3.4240                 1.9119
 Frc consts  --      0.0540                 0.0739                 0.0669
 IR Inten    --      5.7360                 9.1605                 0.7031

                      7                      8                      9
                      A                      A                      A
 Frequencies --    249.5368               272.4132               327.6100
 Red. masses --      2.2080                 4.4956                 4.3219
 Frc consts  --      0.0810                 0.1966                 0.2733
 IR Inten    --      6.0758                 1.2753                 9.0238

                     10                     11                     12
                      A                      A                      A
 Frequencies --    349.9656               378.4839               447.6805
 Red. masses --      1.9024                 2.2670                 2.7147
 Frc consts  --      0.1373                 0.1913                 0.3206
 IR Inten    --      3.6566                11.0079                 3.9965

                     13                     14                     15
                      A                      A                      A
 Frequencies --    452.3570               478.4734               483.1965
 Red. masses --      3.2713                 2.5879                 2.7153
 Frc consts  --      0.3944                 0.3491                 0.3735
 IR Inten    --      0.9831                 3.8343                 0.9460

                     16                     17                     18
                      A                      A                      A
 Frequencies --    526.4486               543.9576               591.9209
 Red. masses --      3.6578                 2.3540                 2.0714
 Frc consts  --      0.5973                 0.4104                 0.4276
 IR Inten    --     10.2852                18.4902                 1.9347

                     19                     20                     21
                      A                      A                      A
 Frequencies --    670.6995               831.3905               842.3577
 Red. masses --      2.7680                 1.5058                 2.6804
 Frc consts  --      0.7336                 0.6132                 1.1206
 IR Inten    --     30.7012                 2.7386                13.6034

                     22                     23                     24
                      A                      A                      A
 Frequencies --    843.3904               854.6557               880.9987
 Red. masses --      1.8115                 1.6651                 2.2513
 Frc consts  --      0.7592                 0.7166                 1.0295
 IR Inten    --      2.1423                19.6510                 5.8640

                     25                     26                     27
                      A                      A                      A
 Frequencies --    901.2964               941.6432               947.1379
 Red. masses --      2.5244                 1.8188                 2.4100
 Frc consts  --      1.2082                 0.9502                 1.2738
 IR Inten    --     37.7035                 2.0877                26.4129

                     28                     29                     30
                      A                      A                      A
 Frequencies --    959.9707               994.1095              1010.5581
 Red. masses --      1.9000                 1.7874                 1.5245
 Frc consts  --      1.0316                 1.0407                 0.9173
 IR Inten    --      2.8953                20.5100                19.1877

                     31                     32                     33
                      A                      A                      A
 Frequencies --   1017.0754              1040.7708              1072.0137
 Red. masses --      1.9313                 2.2344                 1.5597
 Frc consts  --      1.1771                 1.4260                 1.0561
 IR Inten    --     34.5396                30.5891                33.9027

                     34                     35                     36
                      A                      A                      A
 Frequencies --   1087.5539              1120.8295              1135.5952
 Red. masses --      2.9058                 3.0445                 3.4511
 Frc consts  --      2.0250                 2.2534                 2.6222
 IR Inten    --     90.0117                80.5159                21.3940

                     37                     38                     39
                      A                      A                      A
 Frequencies --   1158.4251              1161.9484              1175.4367
 Red. masses --      2.3709                 2.5733                 1.8760
 Frc consts  --      1.8745                 2.0470                 1.5272
 IR Inten    --     32.1871                40.6882                92.3753

                     40                     41                     42
                      A                      A                      A
 Frequencies --   1190.5791              1198.1730              1206.0492
 Red. masses --      2.1943                 1.5361                 1.4394
 Frc consts  --      1.8326                 1.2993                 1.2335
 IR Inten    --     66.8107                48.2164                22.9708

                     43                     44                     45
                      A                      A                      A
 Frequencies --   1256.8225              1262.7538              1275.2492
 Red. masses --      2.5518                 1.6883                 1.4322
 Frc consts  --      2.3749                 1.5861                 1.3723
 IR Inten    --    303.5637               186.7061                34.5735

                     46                     47                     48
                      A                      A                      A
 Frequencies --   1278.0577              1295.6385              1325.3307
 Red. masses --      1.2501                 1.2556                 1.3501
 Frc consts  --      1.2031                 1.2419                 1.3972
 IR Inten    --     32.3226                 1.9673                13.1237

                     49                     50                     51
                      A                      A                      A
 Frequencies --   1331.9619              1345.7739              1350.4134
 Red. masses --      1.4930                 1.3606                 1.3077
 Frc consts  --      1.5606                 1.4519                 1.4050
 IR Inten    --     70.1384                 6.5384                 2.9285

                     52                     53                     54
                      A                      A                      A
 Frequencies --   1363.0430              1368.5543              1387.6954
 Red. masses --      1.2289                 1.3763                 1.5203
 Frc consts  --      1.3452                 1.5187                 1.7249
 IR Inten    --     11.9884                10.3064                 4.8081

                     55                     56                     57
                      A                      A                      A
 Frequencies --   1390.7900              1405.1770              1407.9199
 Red. masses --      1.2916                 1.4372                 1.2944
 Frc consts  --      1.4720                 1.6719                 1.5117
 IR Inten    --     14.9233                56.3820                19.3303

                     58                     59                     60
                      A                      A                      A
 Frequencies --   1419.2544              1430.7763              1436.4716
 Red. masses --      1.4951                 1.3380                 1.5891
 Frc consts  --      1.7744                 1.6138                 1.9320
 IR Inten    --     43.1217                 5.0813                62.3141

                     61                     62                     63
                      A                      A                      A
 Frequencies --   1443.7635              1466.8120              1470.8931
 Red. masses --      1.4329                 1.0999                 1.1045
 Frc consts  --      1.7597                 1.3943                 1.4079
 IR Inten    --     41.0743                 6.1314                 4.9745

                     64                     65                     66
                      A                      A                      A
 Frequencies --   1474.2748              1481.1391              1489.1782
 Red. masses --      1.1175                 1.1275                 1.1380
 Frc consts  --      1.4310                 1.4574                 1.4870
 IR Inten    --      7.2733                 8.7177                28.7041

                     67                     68                     69
                      A                      A                      A
 Frequencies --   1499.7174              1506.2276              1508.9786
 Red. masses --      1.0829                 1.1135                 1.1030
 Frc consts  --      1.4350                 1.4884                 1.4797
 IR Inten    --      3.4147                14.1347                 6.6343

                     70                     71                     72
                      A                      A                      A
 Frequencies --   3021.4416              3035.2514              3038.2212
 Red. masses --      1.0825                 1.0702                 1.0703
 Frc consts  --      5.8223                 5.8093                 5.8208
 IR Inten    --     70.2278                59.2184                72.3044

                     73                     74                     75
                      A                      A                      A
 Frequencies --   3041.2346              3047.5032              3058.9332
 Red. masses --      1.0698                 1.0821                 1.0687
 Frc consts  --      5.8296                 5.9214                 5.8920
 IR Inten    --     71.9860                36.0203                24.3229

                     76                     77                     78
                      A                      A                      A
 Frequencies --   3069.3515              3070.0717              3070.7954
 Red. masses --      1.0619                 1.0616                 1.0615
 Frc consts  --      5.8940                 5.8954                 5.8975
 IR Inten    --      8.8665                31.6192                68.5173

                     79                     80                     81
                      A                      A                      A
 Frequencies --   3074.4135              3119.0336              3122.0901
 Red. masses --      1.0615                 1.0960                 1.1021
 Frc consts  --      5.9113                 6.2821                 6.3296
 IR Inten    --     54.6276                38.6205                55.6761

                     82                     83                     84
                      A                      A                      A
 Frequencies --   3123.8521              3126.1665              3127.6711
 Red. masses --      1.1026                 1.1037                 1.1027
 Frc consts  --      6.3396                 6.3553                 6.3557
 IR Inten    --     34.4437                67.8294                34.9123

                     85                     86                     87
                      A                      A                      A
 Frequencies --   3141.9541              3142.7865              3144.7680
 Red. masses --      1.0954                 1.0966                 1.0960
 Frc consts  --      6.3710                 6.3817                 6.3860
 IR Inten    --     38.3478                40.1794                33.8948

 - Thermochemistry -
 -------------------
 Temperature   298.150 Kelvin.  Pressure   1.00000 Atm.
 Atom     1 has atomic number  6 and mass  12.00000

 Molecular mass:   186.12559 amu.
 Principal axes and moments of inertia in atomic units:
                           1         2         3
     Eigenvalues --   833.361724995.041635280.63744
           X            0.99996   0.00792  -0.00369
           Y           -0.00797   0.99987  -0.01413
           Z            0.00358   0.01416   0.99989
 This molecule is an asymmetric top.
 Rotational symmetry number  1.
 Warning -- assumption of classical behavior for rotation
           may cause significant error
 Rotational temperatures (Kelvin)      0.10393     0.01734     0.01640
 Rotational constants (GHZ):           2.16562     0.36131     0.34177
 Zero-point vibrational energy     737972.0 (Joules/Mol)
                                  176.37954 (Kcal/Mol)
 Warning -- explicit consideration of  18 degrees of freedom as
           vibrations may cause significant error
 Vibrational temperatures:     61.27    75.19   139.27   229.80   275.29
          (Kelvin)            350.60   359.03   391.94   471.36   503.52
                              544.55   644.11   650.84   688.42   695.21
                              757.44   782.63   851.64   964.99  1196.19
                             1211.96  1213.45  1229.66  1267.56  1296.76
                             1354.81  1362.72  1381.18  1430.30  1453.97
                             1463.34  1497.44  1542.39  1564.75  1612.62
                             1633.87  1666.72  1671.78  1691.19  1712.98
                             1723.90  1735.24  1808.29  1816.82  1834.80
                             1838.84  1864.13  1906.86  1916.40  1936.27
                             1942.94  1961.11  1969.04  1996.58  2001.04
                             2021.74  2025.68  2041.99  2058.57  2066.76
                             2077.25  2110.42  2116.29  2121.15  2131.03
                             2142.60  2157.76  2167.13  2171.08  4347.18
                             4367.05  4371.32  4375.66  4384.68  4401.12
                             4416.11  4417.15  4418.19  4423.40  4487.59
                             4491.99  4494.53  4497.86  4500.02  4520.57
                             4521.77  4524.62

 Zero-point correction=                           0.281079 (Hartree/Particle)
 Thermal correction to Energy=                    0.292819
 Thermal correction to Enthalpy=                  0.293764
 Thermal correction to Gibbs Free Energy=         0.242712
 Sum of electronic and zero-point Energies=           -617.225335
 Sum of electronic and thermal Energies=              -617.213594
 Sum of electronic and thermal Enthalpies=            -617.212650
 Sum of electronic and thermal Free Energies=         -617.263702

                     E (Thermal)             CV                S
                      KCal/Mol        Cal/Mol-Kelvin    Cal/Mol-Kelvin
 Total                  183.747             46.695            107.447
 Electronic               0.000              0.000              0.000
 Translational            0.889              2.981             41.570
 Rotational               0.889              2.981             31.464
 Vibrational            181.969             40.733             34.414
 Vibration     1          0.595              1.980              5.135
 Vibration     2          0.596              1.977              4.730
 Vibration     3          0.603              1.951              3.518
 Vibration     4          0.622              1.892              2.553
 Vibration     5          0.634              1.852              2.215
 Vibration     6          0.659              1.773              1.776
 Vibration     7          0.662              1.764              1.734
 Vibration     8          0.675              1.724              1.581
 Vibration     9          0.711              1.620              1.272
 Vibration    10          0.727              1.575              1.166
 Vibration    11          0.749              1.516              1.045
 Vibration    12          0.807              1.366              0.803
 Vibration    13          0.811              1.356              0.789
 Vibration    14          0.835              1.298              0.714
 Vibration    15          0.839              1.287              0.701
 Vibration    16          0.881              1.191              0.595
 Vibration    17          0.899              1.153              0.557
 Vibration    18          0.949              1.049              0.464

 Optimization completed.
    -- Stationary point found.
 Normal termination of Gaussian 16 at Sat Mar  9 10:29:26 2019.
