 Gaussian 16, Revision B.01,
 Gaussian 16:  ES64L-G16RevB.01 20-Dec-2017

 ----------------------------------------------------------------------
 #M062X/6-311++G(2d,2p) opt=ModRedundant freq=noraman SCRF=(SMD,solvent
 =water)
 ----------------------------------------------------------------------

 -------------------------------
 4c1_b1_e3_4c1_PHI.inp_extract_7
 -------------------------------
 Symbolic Z-matrix:
 Charge =  0 Multiplicity = 1

 SCF Done:  E(RM062X) =  -617.498797135     A.U. after   12 cycles
 SCF Done:  E(RM062X) =  -617.500326047     A.U. after   10 cycles
 SCF Done:  E(RM062X) =  -617.500456006     A.U. after   10 cycles
 SCF Done:  E(RM062X) =  -617.500533794     A.U. after    9 cycles
 SCF Done:  E(RM062X) =  -617.500536443     A.U. after    8 cycles
 SCF Done:  E(RM062X) =  -617.500536731     A.U. after    7 cycles
 Optimization completed.
    -- Stationary point found.
 Normal termination of Gaussian 16 at Sat Mar  9 06:52:36 2019.

 ----------------------------------------------------------------------
 #N Geom=AllCheck Guess=TCheck SCRF=Check GenChk RM062X/6-311++G(2d,2p)
  Freq
 ----------------------------------------------------------------------

 Structure from the checkpoint file:  "4c1_b1_e3_4c1_PHI.inp_extract_7.chk"
 -------------------------------
 4c1_b1_e3_4c1_PHI.inp_extract_7
 -------------------------------
 Charge =  0 Multiplicity = 1

                         Standard orientation:
 ---------------------------------------------------------------------
 Center     Atomic      Atomic             Coordinates (Angstroms)
 Number     Number       Type             X           Y           Z
 ---------------------------------------------------------------------
      1          6           0        1.681567    0.963465   -0.706015
      2          6           0        3.297713   -0.826672    0.821038
      3          6           0       -2.189297   -1.335906   -0.019841
      4          6           0        1.042141   -0.265815   -0.074054
      5          6           0        2.087941   -1.359902    0.068966
      6          8           0       -1.316051    0.906756    0.005276
      7          6           0       -3.612186   -0.806868    0.151134
      8          8           0        3.856563    0.308896    0.169227
      9          6           0       -3.575752    0.557543    0.834646
     10          6           0       -1.328173   -0.302905   -0.723915
     11          6           0       -2.625184    1.477733    0.090967
     12          6           0        2.912266    1.371773    0.089416
     13          8           0       -0.011529   -0.794044   -0.883418
     14          1           0        1.976717    0.717191   -1.728842
     15          1           0        0.978290    1.793913   -0.741508
     16          1           0        4.085543   -1.574750    0.872937
     17          1           0        3.015180   -0.548826    1.842807
     18          1           0       -1.733058   -1.536099    0.953749
     19          1           0       -2.174341   -2.258236   -0.600392
     20          1           0        0.658953   -0.014669    0.916938
     21          1           0        1.671574   -2.213879    0.604270
     22          1           0        2.395794   -1.693603   -0.924730
     23          1           0       -4.215340   -1.513007    0.720341
     24          1           0       -4.077089   -0.703325   -0.833147
     25          1           0       -3.230304    0.449743    1.865299
     26          1           0       -4.566048    1.013066    0.860015
     27          1           0       -1.716859   -0.102722   -1.729629
     28          1           0       -2.995560    1.669512   -0.922048
     29          1           0       -2.500967    2.430242    0.600802
     30          1           0        2.625484    1.671045    1.104086
     31          1           0        3.423959    2.206862   -0.383672
 ---------------------------------------------------------------------

 SCF Done:  E(RM062X) =  -617.500536731     A.U. after    1 cycles

 The electronic state is 1-A.
 Alpha  occ. eigenvalues --  -19.63208 -19.62839 -19.62803 -10.63330 -10.58337
 Alpha  occ. eigenvalues --  -10.57658 -10.57553 -10.57503 -10.52462 -10.52370
 Alpha  occ. eigenvalues --  -10.52261 -10.52161 -10.52090  -1.19605  -1.16097
 Alpha  occ. eigenvalues --   -1.13354  -0.90618  -0.89338  -0.85961  -0.84490
 Alpha  occ. eigenvalues --   -0.75175  -0.73085  -0.71937  -0.69426  -0.65987
 Alpha  occ. eigenvalues --   -0.63973  -0.59959  -0.57726  -0.55259  -0.55006
 Alpha  occ. eigenvalues --   -0.54257  -0.52324  -0.51962  -0.50958  -0.49736
 Alpha  occ. eigenvalues --   -0.48423  -0.46961  -0.45599  -0.44898  -0.44034
 Alpha  occ. eigenvalues --   -0.42716  -0.41461  -0.40706  -0.39727  -0.39209
 Alpha  occ. eigenvalues --   -0.38488  -0.37207  -0.36772  -0.34617  -0.33181
 Alpha  occ. eigenvalues --   -0.30798
 Alpha virt. eigenvalues --    0.00436   0.01236   0.01371   0.01471   0.02738
 Alpha virt. eigenvalues --    0.02878   0.03019   0.03831   0.03957   0.04797
 Alpha virt. eigenvalues --    0.05351   0.05510   0.05741   0.05906   0.07416

 Mulliken charges:
               1
     1  C   -0.191464
     2  C   -0.307002
     3  C   -0.032990
     4  C   -0.188152
     5  C   -0.148521
     6  O   -0.354988
     7  C   -0.444512
     8  O   -0.369345
     9  C   -0.265888
    10  C   -0.291456
    11  C   -0.191137
    12  C   -0.333102
    13  O   -0.353714
    14  H    0.199592
    15  H    0.184373
    16  H    0.227776
    17  H    0.161579
    18  H    0.165430
    19  H    0.185057
    20  H    0.281089
    21  H    0.167689
    22  H    0.196571
    23  H    0.179042
    24  H    0.184666
    25  H    0.158725
    26  H    0.181911
    27  H    0.252700
    28  H    0.169779
    29  H    0.195872
    30  H    0.167167
    31  H    0.213255
 Sum of Mulliken charges =  -0.00000

 Dipole moment (field-independent basis, Debye):
    X=             -4.5134    Y=              0.5096    Z=              1.6065  Tot=              4.8178
 Quadrupole moment (field-independent basis, Debye-Ang):
   XX=            -81.9659   YY=            -76.4252   ZZ=            -79.2909
   XY=             -3.0857   XZ=              3.0625   YZ=             -2.5437

  Exact polarizability: 183.087  -2.863 176.365   1.628   0.533 167.896
 Approx polarizability: 146.467  -2.151 144.113   0.914   1.138 141.474

 ******    1 imaginary frequencies (negative Signs) ******

                      1                      2                      3
                      A                      A                      A
 Frequencies --    -71.9347                61.8899                81.8380
 Red. masses --      4.1088                 3.1818                 4.2632
 Frc consts  --      0.0125                 0.0072                 0.0168
 IR Inten    --      6.5124                 0.2132                 0.5251

                      4                      5                      6
                      A                      A                      A
 Frequencies --    146.8583               205.9131               240.9228
 Red. masses --      3.2750                 3.4561                 2.0092
 Frc consts  --      0.0416                 0.0863                 0.0687
 IR Inten    --      3.4821                 6.6805                 4.0966

                      7                      8                      9
                      A                      A                      A
 Frequencies --    249.6484               272.9494               307.1258
 Red. masses --      2.2050                 3.4919                 4.5534
 Frc consts  --      0.0810                 0.1533                 0.2531
 IR Inten    --      2.5525                 3.8378                10.4114

                     10                     11                     12
                      A                      A                      A
 Frequencies --    353.3876               370.9546               441.2418
 Red. masses --      1.9197                 2.3476                 2.9066
 Frc consts  --      0.1413                 0.1903                 0.3334
 IR Inten    --      1.1868                14.2756                 3.7181

                     13                     14                     15
                      A                      A                      A
 Frequencies --    450.7679               474.4616               482.2231
 Red. masses --      3.0028                 3.4745                 2.4632
 Frc consts  --      0.3595                 0.4608                 0.3375
 IR Inten    --      0.5377                 4.9058                 2.5532

                     16                     17                     18
                      A                      A                      A
 Frequencies --    504.9439               555.2709               616.3040
 Red. masses --      3.3804                 1.8181                 2.2424
 Frc consts  --      0.5078                 0.3303                 0.5018
 IR Inten    --      8.1371                14.8058                14.1021

                     19                     20                     21
                      A                      A                      A
 Frequencies --    661.9219               829.3987               840.0253
 Red. masses --      3.4015                 1.4963                 1.9150
 Frc consts  --      0.8781                 0.6065                 0.7962
 IR Inten    --     19.2357                 2.6932                 3.0129

                     22                     23                     24
                      A                      A                      A
 Frequencies --    845.5534               853.4179               882.4885
 Red. masses --      2.6472                 1.6717                 2.2288
 Frc consts  --      1.1151                 0.7174                 1.0227
 IR Inten    --     14.7908                28.2244                 0.6988

                     25                     26                     27
                      A                      A                      A
 Frequencies --    897.6312               933.5470               949.8169
 Red. masses --      2.4230                 1.8646                 2.2369
 Frc consts  --      1.1503                 0.9574                 1.1890
 IR Inten    --     22.0760                 0.9149                21.6297

                     28                     29                     30
                      A                      A                      A
 Frequencies --    959.0430               977.6105              1003.6260
 Red. masses --      1.8407                 2.2577                 1.4429
 Frc consts  --      0.9975                 1.2713                 0.8563
 IR Inten    --      3.0044                23.8319                15.0448

                     31                     32                     33
                      A                      A                      A
 Frequencies --   1011.2627              1034.3033              1063.6582
 Red. masses --      1.9187                 2.0409                 1.5036
 Frc consts  --      1.1561                 1.2864                 1.0023
 IR Inten    --     42.7403                36.0030                37.9897

                     34                     35                     36
                      A                      A                      A
 Frequencies --   1070.0683              1100.9761              1131.7708
 Red. masses --      2.5907                 2.9833                 3.1076
 Frc consts  --      1.7478                 2.1306                 2.3453
 IR Inten    --     18.3645               111.8147                57.9086

                     37                     38                     39
                      A                      A                      A
 Frequencies --   1149.0076              1157.0643              1167.4471
 Red. masses --      2.8204                 2.3217                 2.3829
 Frc consts  --      2.1938                 1.8314                 1.9135
 IR Inten    --    130.6998                26.1838                55.8639

                     40                     41                     42
                      A                      A                      A
 Frequencies --   1186.4934              1195.3771              1201.3513
 Red. masses --      1.8370                 1.6469                 1.5149
 Frc consts  --      1.5236                 1.3865                 1.2882
 IR Inten    --     55.3474                59.4006                43.6090

                     43                     44                     45
                      A                      A                      A
 Frequencies --   1240.4237              1245.7002              1269.7444
 Red. masses --      4.7092                 1.7921                 1.3170
 Frc consts  --      4.2691                 1.6385                 1.2510
 IR Inten    --    481.2058               108.5173                23.4858

                     46                     47                     48
                      A                      A                      A
 Frequencies --   1277.3916              1281.7420              1320.8972
 Red. masses --      1.2524                 1.2927                 1.4010
 Frc consts  --      1.2040                 1.2513                 1.4403
 IR Inten    --     10.4056                19.5331                 8.5021

                     49                     50                     51
                      A                      A                      A
 Frequencies --   1324.6421              1336.7774              1349.1191
 Red. masses --      1.3027                 1.2810                 1.3260
 Frc consts  --      1.3468                 1.3487                 1.4220
 IR Inten    --     56.7744                 7.4623                 9.2714

                     52                     53                     54
                      A                      A                      A
 Frequencies --   1361.3667              1364.5832              1386.3316
 Red. masses --      1.1654                 1.4203                 1.5105
 Frc consts  --      1.2726                 1.5582                 1.7104
 IR Inten    --     11.1388                 0.4845                 5.4348

                     55                     56                     57
                      A                      A                      A
 Frequencies --   1387.5978              1398.1228              1404.3202
 Red. masses --      1.4163                 1.2803                 1.3829
 Frc consts  --      1.6067                 1.4745                 1.6068
 IR Inten    --     18.3001                20.6107                27.6895

                     58                     59                     60
                      A                      A                      A
 Frequencies --   1406.4796              1429.8042              1430.4307
 Red. masses --      1.4716                 1.4161                 1.4140
 Frc consts  --      1.7152                 1.7057                 1.7046
 IR Inten    --     65.9050                29.0323                25.2360

                     61                     62                     63
                      A                      A                      A
 Frequencies --   1432.1637              1468.0753              1468.9699
 Red. masses --      1.3625                 1.0999                 1.1188
 Frc consts  --      1.6466                 1.3967                 1.4224
 IR Inten    --      9.3320                 4.7599                 2.7153

                     64                     65                     66
                      A                      A                      A
 Frequencies --   1471.6086              1480.8740              1488.5632
 Red. masses --      1.0904                 1.1210                 1.1179
 Frc consts  --      1.3913                 1.4484                 1.4594
 IR Inten    --     10.3544                 8.3620                23.9971

                     67                     68                     69
                      A                      A                      A
 Frequencies --   1499.9522              1507.4063              1508.4809
 Red. masses --      1.0831                 1.1007                 1.1014
 Frc consts  --      1.4358                 1.4737                 1.4766
 IR Inten    --      3.0707                 7.8318                 9.2652

                     70                     71                     72
                      A                      A                      A
 Frequencies --   3030.4577              3034.3127              3035.8728
 Red. masses --      1.0842                 1.0702                 1.0702
 Frc consts  --      5.8664                 5.8055                 5.8116
 IR Inten    --     75.0361                55.8197                84.0982

                     73                     74                     75
                      A                      A                      A
 Frequencies --   3041.0590              3058.5131              3063.9058
 Red. masses --      1.0700                 1.0692                 1.0632
 Frc consts  --      5.8300                 5.8927                 5.8803
 IR Inten    --     78.5164                12.6189                57.1050

                     76                     77                     78
                      A                      A                      A
 Frequencies --   3069.6767              3069.7597              3070.9918
 Red. masses --      1.0633                 1.0615                 1.0678
 Frc consts  --      5.9033                 5.8933                 5.9332
 IR Inten    --     14.3150                56.1906                10.8257

                     79                     80                     81
                      A                      A                      A
 Frequencies --   3085.2511              3118.3287              3121.4763
 Red. masses --      1.0790                 1.0966                 1.1017
 Frc consts  --      6.0512                 6.2825                 6.3244
 IR Inten    --     65.0982                39.1654                56.4840

                     82                     83                     84
                      A                      A                      A
 Frequencies --   3124.5518              3125.3021              3140.3876
 Red. masses --      1.1030                 1.1021                 1.0947
 Frc consts  --      6.3447                 6.3426                 6.3605
 IR Inten    --     69.0509                43.2614                51.6761

                     85                     86                     87
                      A                      A                      A
 Frequencies --   3142.2038              3143.0582              3143.6039
 Red. masses --      1.0961                 1.0980                 1.0971
 Frc consts  --      6.3764                 6.3909                 6.3875
 IR Inten    --     38.4405                43.6415                14.4534

 - Thermochemistry -
 -------------------
 Temperature   298.150 Kelvin.  Pressure   1.00000 Atm.
 Atom     1 has atomic number  6 and mass  12.00000

 Molecular mass:   186.12559 amu.
 Principal axes and moments of inertia in atomic units:
                           1         2         3
     Eigenvalues --   917.274484584.148485041.63956
           X            1.00000  -0.00086   0.00016
           Y            0.00087   0.99981  -0.01973
           Z           -0.00015   0.01973   0.99981
 This molecule is an asymmetric top.
 Rotational symmetry number  1.
 Warning -- assumption of classical behavior for rotation
           may cause significant error
 Rotational temperatures (Kelvin)      0.09443     0.01889     0.01718
 Rotational constants (GHZ):           1.96750     0.39369     0.35797
    1 imaginary frequencies ignored.
 Zero-point vibrational energy     736180.9 (Joules/Mol)
                                  175.95147 (Kcal/Mol)
 Warning -- explicit consideration of  17 degrees of freedom as
           vibrations may cause significant error
 Vibrational temperatures:     89.05   117.75   211.30   296.26   346.63
          (Kelvin)            359.19   392.71   441.89   508.45   533.72
                              634.85   648.55   682.64   693.81   726.50
                              798.91   886.72   952.36  1193.32  1208.61
                             1216.56  1227.88  1269.70  1291.49  1343.17
                             1366.57  1379.85  1406.56  1443.99  1454.98
                             1488.13  1530.37  1539.59  1584.06  1628.37
                             1653.17  1664.76  1679.70  1707.10  1719.88
                             1728.48  1784.69  1792.28  1826.88  1837.88
                             1844.14  1900.48  1905.86  1923.32  1941.08
                             1958.70  1963.33  1994.62  1996.44  2011.59
                             2020.50  2023.61  2057.17  2058.07  2060.56
                             2112.23  2113.52  2117.32  2130.65  2141.71
                             2158.10  2168.82  2170.37  4360.15  4365.70
                             4367.94  4375.41  4400.52  4408.28  4416.58
                             4416.70  4418.47  4438.99  4486.58  4491.11
                             4495.53  4496.61  4518.32  4520.93  4522.16
                             4522.94

 Zero-point correction=                           0.280397 (Hartree/Particle)
 Thermal correction to Energy=                    0.291357
 Thermal correction to Enthalpy=                  0.292301
 Thermal correction to Gibbs Free Energy=         0.243590
 Sum of electronic and zero-point Energies=           -617.220140
 Sum of electronic and thermal Energies=              -617.209180
 Sum of electronic and thermal Enthalpies=            -617.208236
 Sum of electronic and thermal Free Energies=         -617.256947

                     E (Thermal)             CV                S
                      KCal/Mol        Cal/Mol-Kelvin    Cal/Mol-Kelvin
 Total                  182.829             44.964            102.521
 Electronic               0.000              0.000              0.000
 Translational            0.889              2.981             41.570
 Rotational               0.889              2.981             31.428
 Vibrational            181.052             39.002             29.523
 Vibration     1          0.597              1.972              4.396
 Vibration     2          0.600              1.962              3.846
 Vibration     3          0.617              1.906              2.713
 Vibration     4          0.640              1.831              2.080
 Vibration     5          0.658              1.778              1.796
 Vibration     6          0.662              1.763              1.733
 Vibration     7          0.676              1.723              1.577
 Vibration     8          0.697              1.660              1.378
 Vibration     9          0.730              1.568              1.151
 Vibration    10          0.743              1.532              1.076
 Vibration    11          0.801              1.380              0.823
 Vibration    12          0.810              1.359              0.793
 Vibration    13          0.831              1.307              0.725
 Vibration    14          0.838              1.289              0.704
 Vibration    15          0.860              1.239              0.646
 Vibration    16          0.911              1.128              0.533
 Vibration    17          0.976              0.997              0.422

 Optimization completed.
    -- Stationary point found.
 Normal termination of Gaussian 16 at Sat Mar  9 07:56:32 2019.
