 Gaussian 16, Revision B.01,
 Gaussian 16:  ES64L-G16RevB.01 20-Dec-2017

 ----------------------------------------------------------------------
 #M062X/6-311++G(2d,2p) opt=ModRedundant freq=noraman SCRF=(SMD,solvent
 =water)
 ----------------------------------------------------------------------

 --------------------------------
 4c1_b1_e3_4c1_PHI.inp_extract_24
 --------------------------------
 Symbolic Z-matrix:
 Charge =  0 Multiplicity = 1

 SCF Done:  E(RM062X) =  -617.507470888     A.U. after   12 cycles
 SCF Done:  E(RM062X) =  -617.509088616     A.U. after   10 cycles
 SCF Done:  E(RM062X) =  -617.509355845     A.U. after   10 cycles
 SCF Done:  E(RM062X) =  -617.509542566     A.U. after   10 cycles
 SCF Done:  E(RM062X) =  -617.509586872     A.U. after   10 cycles
 SCF Done:  E(RM062X) =  -617.509622354     A.U. after    9 cycles
 SCF Done:  E(RM062X) =  -617.509638503     A.U. after    9 cycles
 SCF Done:  E(RM062X) =  -617.509639871     A.U. after    8 cycles
 Optimization completed.
    -- Stationary point found.
 Normal termination of Gaussian 16 at Sat Mar  9 11:03:48 2019.

 ----------------------------------------------------------------------
 #N Geom=AllCheck Guess=TCheck SCRF=Check GenChk RM062X/6-311++G(2d,2p)
  Freq
 ----------------------------------------------------------------------

 Structure from the checkpoint file:  "4c1_b1_e3_4c1_PHI.inp_extract_24.chk"
 --------------------------------
 4c1_b1_e3_4c1_PHI.inp_extract_24
 --------------------------------
 Charge =  0 Multiplicity = 1

                         Standard orientation:
 ---------------------------------------------------------------------
 Center     Atomic      Atomic             Coordinates (Angstroms)
 Number     Number       Type             X           Y           Z
 ---------------------------------------------------------------------
      1          6           0       -2.323650   -1.274380   -0.414832
      2          6           0       -2.839929    1.381960    0.478822
      3          6           0        2.320789   -1.373342    0.084398
      4          6           0       -1.201430   -0.463595    0.206675
      5          6           0       -1.448901    1.021012   -0.022266
      6          8           0        1.491543    0.787348   -0.604666
      7          6           0        3.623151   -0.732410    0.563389
      8          8           0       -3.846116    0.604234   -0.161025
      9          6           0        3.875492    0.569938   -0.192396
     10          6           0        1.188594   -0.370622    0.163039
     11          6           0        2.649086    1.460447   -0.105200
     12          6           0       -3.666661   -0.783227    0.101683
     13          8           0        0.024090   -0.937347   -0.362396
     14          1           0       -2.287478   -1.157976   -1.500289
     15          1           0       -2.203892   -2.331908   -0.177785
     16          1           0       -3.070062    2.423387    0.266108
     17          1           0       -2.903610    1.226821    1.561874
     18          1           0        2.411771   -1.693382   -0.956472
     19          1           0        2.062663   -2.242636    0.688801
     20          1           0       -1.171720   -0.655859    1.285424
     21          1           0       -0.712265    1.627099    0.504999
     22          1           0       -1.373311    1.239488   -1.089700
     23          1           0        4.453688   -1.425141    0.434205
     24          1           0        3.543945   -0.517003    1.632337
     25          1           0        4.083469    0.357278   -1.243456
     26          1           0        4.735186    1.100769    0.217542
     27          1           0        1.019346   -0.059642    1.203472
     28          1           0        2.468368    1.758301    0.934125
     29          1           0        2.758318    2.359847   -0.707005
     30          1           0       -3.743866   -0.955860    1.180985
     31          1           0       -4.485938   -1.302134   -0.390348
 ---------------------------------------------------------------------

 SCF Done:  E(RM062X) =  -617.509639871     A.U. after    1 cycles

 The electronic state is 1-A.
 Alpha  occ. eigenvalues --  -19.63583 -19.62907 -19.62784 -10.63202 -10.58564
 Alpha  occ. eigenvalues --  -10.57638 -10.57601 -10.57450 -10.52535 -10.52513
 Alpha  occ. eigenvalues --  -10.52392 -10.52384 -10.52213  -1.19819  -1.16180
 Alpha  occ. eigenvalues --   -1.13644  -0.90718  -0.89397  -0.86141  -0.84536
 Alpha  occ. eigenvalues --   -0.74609  -0.73214  -0.72154  -0.69787  -0.65973
 Alpha  occ. eigenvalues --   -0.64436  -0.59692  -0.57817  -0.56142  -0.54321
 Alpha  occ. eigenvalues --   -0.54275  -0.52711  -0.52171  -0.51247  -0.49631
 Alpha  occ. eigenvalues --   -0.49080  -0.46456  -0.45779  -0.44919  -0.44191
 Alpha  occ. eigenvalues --   -0.42386  -0.41414  -0.40544  -0.39797  -0.39157
 Alpha  occ. eigenvalues --   -0.38261  -0.37143  -0.37028  -0.34852  -0.33476
 Alpha  occ. eigenvalues --   -0.31930
 Alpha virt. eigenvalues --    0.00523   0.01251   0.01368   0.01477   0.02693
 Alpha virt. eigenvalues --    0.02874   0.02989   0.03976   0.04123   0.04723
 Alpha virt. eigenvalues --    0.05135   0.05427   0.05780   0.06308   0.07436

 Mulliken charges:
               1
     1  C   -0.221938
     2  C   -0.451008
     3  C   -0.287515
     4  C   -0.227012
     5  C   -0.122336
     6  O   -0.411345
     7  C   -0.407353
     8  O   -0.368741
     9  C   -0.386462
    10  C    0.150675
    11  C   -0.111883
    12  C   -0.281123
    13  O   -0.398395
    14  H    0.197159
    15  H    0.180909
    16  H    0.207578
    17  H    0.178023
    18  H    0.200810
    19  H    0.172047
    20  H    0.280460
    21  H    0.174337
    22  H    0.237981
    23  H    0.199079
    24  H    0.174486
    25  H    0.163414
    26  H    0.183206
    27  H    0.233384
    28  H    0.154305
    29  H    0.202759
    30  H    0.157227
    31  H    0.227273
 Sum of Mulliken charges =  -0.00000

 Dipole moment (field-independent basis, Debye):
    X=              2.9143    Y=             -0.1515    Z=              4.2325  Tot=              5.1410
 Quadrupole moment (field-independent basis, Debye-Ang):
   XX=            -79.4580   YY=            -76.9214   ZZ=            -80.3562
   XY=              6.4451   XZ=             -1.4947   YZ=              0.7172

  Exact polarizability: 184.358   4.381 176.474  -0.282   1.138 167.569
 Approx polarizability: 145.917   2.884 144.500   0.625   0.574 142.468

                      1                      2                      3
                      A                      A                      A
 Frequencies --     44.0131                65.2881                79.3853
 Red. masses --      3.3035                 4.4165                 3.5119
 Frc consts  --      0.0038                 0.0111                 0.0130
 IR Inten    --      0.4812                 0.5165                 0.8510

                      4                      5                      6
                      A                      A                      A
 Frequencies --    156.1727               219.0489               248.2013
 Red. masses --      3.4108                 3.6240                 2.0024
 Frc consts  --      0.0490                 0.1025                 0.0727
 IR Inten    --      7.5287                 5.7923                 3.4100

                      7                      8                      9
                      A                      A                      A
 Frequencies --    254.1869               265.4967               297.5890
 Red. masses --      2.1516                 3.8331                 3.0208
 Frc consts  --      0.0819                 0.1592                 0.1576
 IR Inten    --     12.4664                 0.1955                 3.7313

                     10                     11                     12
                      A                      A                      A
 Frequencies --    360.1929               392.1842               436.4006
 Red. masses --      2.0376                 2.2775                 4.1211
 Frc consts  --      0.1558                 0.2064                 0.4624
 IR Inten    --      1.7299                11.9608                 4.3252

                     13                     14                     15
                      A                      A                      A
 Frequencies --    456.7252               474.8798               505.4438
 Red. masses --      2.6760                 2.9592                 2.5246
 Frc consts  --      0.3289                 0.3932                 0.3800
 IR Inten    --      2.1192                 0.6079                 2.9453

                     16                     17                     18
                      A                      A                      A
 Frequencies --    524.9375               549.1977               607.8635
 Red. masses --      2.7539                 2.7516                 2.4585
 Frc consts  --      0.4471                 0.4890                 0.5352
 IR Inten    --      3.7443                 0.4406                15.7637

                     19                     20                     21
                      A                      A                      A
 Frequencies --    655.6860               832.9757               833.3080
 Red. masses --      2.5287                 1.7803                 1.5517
 Frc consts  --      0.6405                 0.7278                 0.6348
 IR Inten    --     28.8742                 3.9993                 7.3969

                     22                     23                     24
                      A                      A                      A
 Frequencies --    843.3592               863.2901               883.4282
 Red. masses --      2.4851                 1.9772                 1.8740
 Frc consts  --      1.0414                 0.8682                 0.8617
 IR Inten    --     15.3694                10.4433                12.0323

                     25                     26                     27
                      A                      A                      A
 Frequencies --    898.7033               933.8184               938.4193
 Red. masses --      2.5341                 2.4716                 1.7467
 Frc consts  --      1.2059                 1.2698                 0.9063
 IR Inten    --     40.5987                47.8286                 2.9357

                     28                     29                     30
                      A                      A                      A
 Frequencies --    960.5441               994.1623              1005.7751
 Red. masses --      2.1133                 1.7160                 1.4605
 Frc consts  --      1.1488                 0.9993                 0.8705
 IR Inten    --     11.1760                44.4117                25.1799

                     31                     32                     33
                      A                      A                      A
 Frequencies --   1016.4711              1036.4924              1056.1467
 Red. masses --      2.0697                 2.1463                 1.5552
 Frc consts  --      1.2600                 1.3585                 1.0221
 IR Inten    --     11.3069                38.7408               103.6448

                     34                     35                     36
                      A                      A                      A
 Frequencies --   1089.3133              1104.4527              1117.5487
 Red. masses --      2.6324                 2.9162                 4.4450
 Frc consts  --      1.8404                 2.0959                 3.2708
 IR Inten    --     68.2246                28.6713               299.8685

                     37                     38                     39
                      A                      A                      A
 Frequencies --   1133.2531              1156.5111              1172.3656
 Red. masses --      3.1296                 2.3152                 2.7554
 Frc consts  --      2.3680                 1.8245                 2.2313
 IR Inten    --     47.6751                 7.5113                67.4293

                     40                     41                     42
                      A                      A                      A
 Frequencies --   1186.0522              1195.2079              1207.1534
 Red. masses --      1.9537                 1.4203                 1.7080
 Frc consts  --      1.6192                 1.1954                 1.4665
 IR Inten    --     66.5536                31.5232               107.1442

                     43                     44                     45
                      A                      A                      A
 Frequencies --   1224.8868              1239.2239              1272.5935
 Red. masses --      3.3347                 1.6516                 1.3174
 Frc consts  --      2.9478                 1.4944                 1.2570
 IR Inten    --    290.3818                41.3849                10.8171

                     46                     47                     48
                      A                      A                      A
 Frequencies --   1278.2834              1282.8449              1313.9273
 Red. masses --      1.2499                 1.2799                 1.2039
 Frc consts  --      1.2033                 1.2410                 1.2246
 IR Inten    --     16.5761                 2.1663                33.4236

                     49                     50                     51
                      A                      A                      A
 Frequencies --   1323.2038              1341.1002              1349.8672
 Red. masses --      1.3616                 1.3201                 1.2878
 Frc consts  --      1.4046                 1.3989                 1.3826
 IR Inten    --      9.8996                10.1297                 3.2735

                     52                     53                     54
                      A                      A                      A
 Frequencies --   1360.8825              1368.2101              1385.5028
 Red. masses --      1.1692                 1.4451                 1.4760
 Frc consts  --      1.2758                 1.5938                 1.6694
 IR Inten    --     16.3564                 1.0561                 7.3948

                     55                     56                     57
                      A                      A                      A
 Frequencies --   1389.7340              1392.6532              1405.6537
 Red. masses --      1.2983                 1.3023                 1.4604
 Frc consts  --      1.4774                 1.4882                 1.7001
 IR Inten    --     16.3285                16.9550                89.2892

                     58                     59                     60
                      A                      A                      A
 Frequencies --   1409.5356              1419.0747              1429.8523
 Red. masses --      1.5773                 1.3504                 1.3454
 Frc consts  --      1.8464                 1.6023                 1.6206
 IR Inten    --     19.0393                19.4067                 4.1242

                     61                     62                     63
                      A                      A                      A
 Frequencies --   1454.1358              1466.2901              1472.1330
 Red. masses --      1.3874                 1.1014                 1.1167
 Frc consts  --      1.7285                 1.3952                 1.4258
 IR Inten    --     24.2289                 5.8515                 4.1431

                     64                     65                     66
                      A                      A                      A
 Frequencies --   1473.9184              1481.2171              1490.1823
 Red. masses --      1.1282                 1.1365                 1.1302
 Frc consts  --      1.4441                 1.4691                 1.4787
 IR Inten    --     10.4518                 8.7814                26.7484

                     67                     68                     69
                      A                      A                      A
 Frequencies --   1500.5915              1504.5349              1509.2897
 Red. masses --      1.0828                 1.0974                 1.1014
 Frc consts  --      1.4366                 1.4635                 1.4782
 IR Inten    --      3.3798                 5.0606                 8.5810

                     70                     71                     72
                      A                      A                      A
 Frequencies --   3010.9219              3032.0330              3033.0800
 Red. masses --      1.0832                 1.0822                 1.0706
 Frc consts  --      5.7858                 5.8618                 5.8031
 IR Inten    --     60.9150                17.1734                73.7147

                     73                     74                     75
                      A                      A                      A
 Frequencies --   3036.3187              3037.9256              3060.9557
 Red. masses --      1.0704                 1.0707                 1.0686
 Frc consts  --      5.8140                 5.8222                 5.8991
 IR Inten    --     65.6992               114.3410                22.6158

                     76                     77                     78
                      A                      A                      A
 Frequencies --   3069.4442              3070.6907              3073.0073
 Red. masses --      1.0621                 1.0613                 1.0609
 Frc consts  --      5.8959                 5.8960                 5.9025
 IR Inten    --     26.9126                59.9542                18.1615

                     79                     80                     81
                      A                      A                      A
 Frequencies --   3076.4765              3118.6250              3121.9126
 Red. masses --      1.0614                 1.0970                 1.1017
 Frc consts  --      5.9191                 6.2863                 6.3262
 IR Inten    --     47.9502                41.0742                60.1578

                     82                     83                     84
                      A                      A                      A
 Frequencies --   3127.2230              3127.9897              3131.0403
 Red. masses --      1.1031                 1.1032                 1.1032
 Frc consts  --      6.3562                 6.3594                 6.3722
 IR Inten    --     42.6440                54.1548                40.5643

                     85                     86                     87
                      A                      A                      A
 Frequencies --   3140.4659              3142.4976              3144.6976
 Red. masses --      1.0956                 1.0955                 1.0959
 Frc consts  --      6.3663                 6.3739                 6.3855
 IR Inten    --     40.3476                38.7187                34.9633

 - Thermochemistry -
 -------------------
 Temperature   298.150 Kelvin.  Pressure   1.00000 Atm.
 Atom     1 has atomic number  6 and mass  12.00000

 Molecular mass:   186.12559 amu.
 Principal axes and moments of inertia in atomic units:
                           1         2         3
     Eigenvalues --   833.942144789.576695360.96643
           X            0.99999   0.00418  -0.00005
           Y           -0.00418   0.99997   0.00635
           Z            0.00007  -0.00635   0.99998
 This molecule is an asymmetric top.
 Rotational symmetry number  1.
 Warning -- assumption of classical behavior for rotation
           may cause significant error
 Rotational temperatures (Kelvin)      0.10386     0.01808     0.01616
 Rotational constants (GHZ):           2.16411     0.37681     0.33664
 Zero-point vibrational energy     736578.3 (Joules/Mol)
                                  176.04644 (Kcal/Mol)
 Warning -- explicit consideration of  18 degrees of freedom as
           vibrations may cause significant error
 Vibrational temperatures:     63.33    93.94   114.22   224.70   315.16
          (Kelvin)            357.11   365.72   381.99   428.16   518.24
                              564.27   627.88   657.13   683.25   727.22
                              755.27   790.17   874.58   943.39  1198.47
                             1198.94  1213.41  1242.08  1271.06  1293.03
                             1343.56  1350.18  1382.01  1430.38  1447.09
                             1462.48  1491.28  1519.56  1567.28  1589.06
                             1607.90  1630.50  1663.96  1686.77  1706.46
                             1719.64  1736.82  1762.34  1782.97  1830.98
                             1839.16  1845.73  1890.45  1903.80  1929.54
                             1942.16  1958.01  1968.55  1993.43  1999.52
                             2003.72  2022.42  2028.01  2041.73  2057.24
                             2092.18  2109.66  2118.07  2120.64  2131.14
                             2144.04  2159.02  2164.69  2171.53  4332.05
                             4362.42  4363.93  4368.59  4370.90  4404.03
                             4416.25  4418.04  4421.37  4426.36  4487.01
                             4491.74  4499.38  4500.48  4504.87  4518.43
                             4521.35  4524.52

 Zero-point correction=                           0.280548 (Hartree/Particle)
 Thermal correction to Energy=                    0.292269
 Thermal correction to Enthalpy=                  0.293214
 Thermal correction to Gibbs Free Energy=         0.242305
 Sum of electronic and zero-point Energies=           -617.229092
 Sum of electronic and thermal Energies=              -617.217370
 Sum of electronic and thermal Enthalpies=            -617.216426
 Sum of electronic and thermal Free Energies=         -617.267335

                     E (Thermal)             CV                S
                      KCal/Mol        Cal/Mol-Kelvin    Cal/Mol-Kelvin
 Total                  183.402             46.795            107.146
 Electronic               0.000              0.000              0.000
 Translational            0.889              2.981             41.570
 Rotational               0.889              2.981             31.438
 Vibrational            181.624             40.833             34.138
 Vibration     1          0.595              1.980              5.070
 Vibration     2          0.597              1.971              4.291
 Vibration     3          0.600              1.963              3.906
 Vibration     4          0.620              1.896              2.596
 Vibration     5          0.647              1.812              1.967
 Vibration     6          0.662              1.766              1.743
 Vibration     7          0.665              1.756              1.701
 Vibration     8          0.671              1.736              1.625
 Vibration     9          0.691              1.678              1.430
 Vibration    10          0.735              1.554              1.121
 Vibration    11          0.760              1.487              0.992
 Vibration    12          0.797              1.391              0.838
 Vibration    13          0.815              1.346              0.776
 Vibration    14          0.832              1.306              0.724
 Vibration    15          0.861              1.238              0.645
 Vibration    16          0.880              1.195              0.599
 Vibration    17          0.904              1.141              0.546
 Vibration    18          0.967              1.015              0.436

 Optimization completed.
    -- Stationary point found.
 Normal termination of Gaussian 16 at Sat Mar  9 12:05:13 2019.
