 Gaussian 16, Revision B.01,
 Gaussian 16:  ES64L-G16RevB.01 20-Dec-2017

 ----------------------------------------------------------------------
 #M062X/6-311++G(2d,2p) opt=ModRedundant freq=noraman SCRF=(SMD,solvent
 =water)
 ----------------------------------------------------------------------

 --------------------------------
 4c1_b1_e3_4c1_PHI.inp_extract_12
 --------------------------------
 Symbolic Z-matrix:
 Charge =  0 Multiplicity = 1

 SCF Done:  E(RM062X) =  -617.502916523     A.U. after   12 cycles
 SCF Done:  E(RM062X) =  -617.504240849     A.U. after   10 cycles
 SCF Done:  E(RM062X) =  -617.504613672     A.U. after   10 cycles
 SCF Done:  E(RM062X) =  -617.504807952     A.U. after   10 cycles
 SCF Done:  E(RM062X) =  -617.504829061     A.U. after    9 cycles
 SCF Done:  E(RM062X) =  -617.504832247     A.U. after    8 cycles
 SCF Done:  E(RM062X) =  -617.504833047     A.U. after    7 cycles
 Optimization completed.
    -- Stationary point found.
 Normal termination of Gaussian 16 at Sat Mar  9 07:57:56 2019.

 ----------------------------------------------------------------------
 #N Geom=AllCheck Guess=TCheck SCRF=Check GenChk RM062X/6-311++G(2d,2p)
  Freq
 ----------------------------------------------------------------------

 Structure from the checkpoint file:  "4c1_b1_e3_4c1_PHI.inp_extract_12.chk"
 --------------------------------
 4c1_b1_e3_4c1_PHI.inp_extract_12
 --------------------------------
 Charge =  0 Multiplicity = 1

                         Standard orientation:
 ---------------------------------------------------------------------
 Center     Atomic      Atomic             Coordinates (Angstroms)
 Number     Number       Type             X           Y           Z
 ---------------------------------------------------------------------
      1          6           0       -2.065385   -1.338042   -0.125853
      2          6           0       -2.937468    1.338330    0.311652
      3          6           0        1.527148    1.155520   -0.118764
      4          6           0       -1.041048   -0.213995   -0.130099
      5          6           0       -1.716265    1.080884   -0.559728
      6          8           0        1.889173   -1.245214    0.034901
      7          6           0        3.024398    1.383003    0.103907
      8          8           0       -3.861298    0.257171    0.252615
      9          6           0        3.621124    0.225774    0.898452
     10          6           0        1.321520   -0.206450   -0.757574
     11          6           0        3.298196   -1.084563    0.205319
     12          6           0       -3.267286   -0.949470    0.720022
     13          8           0        0.004295   -0.601493   -1.030542
     14          1           0       -2.388947   -1.527848   -1.151893
     15          1           0       -1.619232   -2.251696    0.267883
     16          1           0       -3.473032    2.223897   -0.022759
     17          1           0       -2.632109    1.490692    1.353225
     18          1           0        1.001906    1.209420    0.835751
     19          1           0        1.120703    1.918680   -0.781043
     20          1           0       -0.638239   -0.109725    0.880274
     21          1           0       -1.040117    1.930256   -0.480708
     22          1           0       -2.026256    0.984549   -1.602857
     23          1           0        3.182337    2.331375    0.615640
     24          1           0        3.525929    1.449474   -0.865236
     25          1           0        3.202034    0.208870    1.907159
     26          1           0        4.703088    0.327454    0.987340
     27          1           0        1.830671   -0.220298   -1.728097
     28          1           0        3.779624   -1.118449   -0.778832
     29          1           0        3.631909   -1.943564    0.783009
     30          1           0       -2.968026   -0.818421    1.766052
     31          1           0       -4.039208   -1.714336    0.675303
 ---------------------------------------------------------------------

 SCF Done:  E(RM062X) =  -617.504833047     A.U. after    1 cycles

 The electronic state is 1-A.
 Alpha  occ. eigenvalues --  -19.63397 -19.62898 -19.62843 -10.63400 -10.58501
 Alpha  occ. eigenvalues --  -10.57607 -10.57589 -10.57430 -10.52621 -10.52576
 Alpha  occ. eigenvalues --  -10.52438 -10.52341 -10.52226  -1.19575  -1.16169
 Alpha  occ. eigenvalues --   -1.13411  -0.90328  -0.89817  -0.86084  -0.84632
 Alpha  occ. eigenvalues --   -0.75184  -0.73468  -0.72113  -0.69470  -0.66218
 Alpha  occ. eigenvalues --   -0.63808  -0.59875  -0.57558  -0.55692  -0.54686
 Alpha  occ. eigenvalues --   -0.54197  -0.52606  -0.52218  -0.51058  -0.50322
 Alpha  occ. eigenvalues --   -0.48544  -0.47401  -0.45582  -0.44612  -0.44239
 Alpha  occ. eigenvalues --   -0.42383  -0.41597  -0.40765  -0.39971  -0.38998
 Alpha  occ. eigenvalues --   -0.38434  -0.37385  -0.36639  -0.33953  -0.33127
 Alpha  occ. eigenvalues --   -0.32461
 Alpha virt. eigenvalues --    0.00432   0.01232   0.01351   0.01557   0.02826
 Alpha virt. eigenvalues --    0.02923   0.03013   0.03865   0.04073   0.04977
 Alpha virt. eigenvalues --    0.05265   0.05595   0.05780   0.05882   0.07521

 Mulliken charges:
               1
     1  C   -0.176912
     2  C   -0.375751
     3  C   -0.089511
     4  C   -0.290253
     5  C   -0.059952
     6  O   -0.410443
     7  C   -0.557996
     8  O   -0.371028
     9  C   -0.271075
    10  C   -0.124682
    11  C   -0.200309
    12  C   -0.290996
    13  O   -0.354417
    14  H    0.195245
    15  H    0.170042
    16  H    0.213241
    17  H    0.175662
    18  H    0.221298
    19  H    0.186907
    20  H    0.279343
    21  H    0.194873
    22  H    0.207408
    23  H    0.166200
    24  H    0.202757
    25  H    0.161617
    26  H    0.181652
    27  H    0.264929
    28  H    0.157973
    29  H    0.203866
    30  H    0.154768
    31  H    0.235545
 Sum of Mulliken charges =  -0.00000

 Dipole moment (field-independent basis, Debye):
    X=              3.6248    Y=              3.0106    Z=              1.7601  Tot=              5.0300
 Quadrupole moment (field-independent basis, Debye-Ang):
   XX=            -81.8629   YY=            -78.5212   ZZ=            -79.9789
   XY=              3.8325   XZ=             -2.2840   YZ=             -2.2092

  Exact polarizability: 186.066  -0.446 173.955  -0.218  -1.293 167.689
 Approx polarizability: 148.500  -0.075 142.798   0.363  -1.098 141.479

                      1                      2                      3
                      A                      A                      A
 Frequencies --     36.7426                60.5539                89.7992
 Red. masses --      3.6677                 3.3296                 4.0742
 Frc consts  --      0.0029                 0.0072                 0.0194
 IR Inten    --      2.3364                 0.5917                 1.5471

                      4                      5                      6
                      A                      A                      A
 Frequencies --    143.6205               216.2790               238.1215
 Red. masses --      3.3415                 3.9927                 1.8906
 Frc consts  --      0.0406                 0.1100                 0.0632
 IR Inten    --      6.8650                 1.6965                 1.6389

                      7                      8                      9
                      A                      A                      A
 Frequencies --    254.2459               280.2306               330.6989
 Red. masses --      2.1861                 3.4148                 2.6679
 Frc consts  --      0.0833                 0.1580                 0.1719
 IR Inten    --     10.1039                 2.3809                10.5599

                     10                     11                     12
                      A                      A                      A
 Frequencies --    363.3902               386.4386               431.2162
 Red. masses --      2.1018                 3.0256                 2.9168
 Frc consts  --      0.1635                 0.2662                 0.3196
 IR Inten    --      6.6836                 7.4728                 5.3860

                     13                     14                     15
                      A                      A                      A
 Frequencies --    450.5987               470.0819               480.2667
 Red. masses --      4.2552                 3.1600                 2.2358
 Frc consts  --      0.5090                 0.4114                 0.3038
 IR Inten    --      0.8040                 1.5350                 2.4440

                     16                     17                     18
                      A                      A                      A
 Frequencies --    508.7825               558.7074               606.4848
 Red. masses --      3.3372                 1.9059                 2.1506
 Frc consts  --      0.5090                 0.3505                 0.4661
 IR Inten    --      3.4092                10.4893                24.0136

                     19                     20                     21
                      A                      A                      A
 Frequencies --    670.7508               826.1701               830.0417
 Red. masses --      3.5074                 1.5076                 2.0555
 Frc consts  --      0.9297                 0.6063                 0.8344
 IR Inten    --     10.4857                 0.9300                17.0055

                     22                     23                     24
                      A                      A                      A
 Frequencies --    844.6731               860.7762               880.5846
 Red. masses --      2.4893                 1.6729                 2.2722
 Frc consts  --      1.0464                 0.7303                 1.0381
 IR Inten    --     18.8013                14.6903                 0.4949

                     25                     26                     27
                      A                      A                      A
 Frequencies --    900.6029               933.0328               937.3136
 Red. masses --      2.4152                 2.3542                 1.8791
 Frc consts  --      1.1542                 1.2075                 0.9727
 IR Inten    --     31.6603                48.4441                10.9153

                     28                     29                     30
                      A                      A                      A
 Frequencies --    964.4547               978.4469              1007.5731
 Red. masses --      1.8684                 2.2064                 1.5152
 Frc consts  --      1.0240                 1.2446                 0.9063
 IR Inten    --     18.5102                16.5526                18.4772

                     31                     32                     33
                      A                      A                      A
 Frequencies --   1013.6436              1035.0806              1058.9745
 Red. masses --      1.9318                 2.0475                 1.5962
 Frc consts  --      1.1694                 1.2925                 1.0546
 IR Inten    --     46.4252                51.7237               103.8913

                     34                     35                     36
                      A                      A                      A
 Frequencies --   1073.6157              1088.5673              1116.8721
 Red. masses --      2.8945                 2.3901                 4.5893
 Frc consts  --      1.9657                 1.6687                 3.3729
 IR Inten    --     58.8481                47.3731               297.6445

                     37                     38                     39
                      A                      A                      A
 Frequencies --   1131.6629              1154.7820              1170.5000
 Red. masses --      3.1200                 2.3173                 2.5237
 Frc consts  --      2.3542                 1.8206                 2.0372
 IR Inten    --     55.2947                 2.4637                55.0510

                     40                     41                     42
                      A                      A                      A
 Frequencies --   1187.0151              1196.4468              1208.3374
 Red. masses --      2.0049                 1.4395                 1.6481
 Frc consts  --      1.6644                 1.2141                 1.4177
 IR Inten    --     73.1038                47.0872                24.5213

                     43                     44                     45
                      A                      A                      A
 Frequencies --   1235.2799              1251.6651              1273.1106
 Red. masses --      1.5592                 3.3862                 1.2997
 Frc consts  --      1.4018                 3.1256                 1.2412
 IR Inten    --     56.7558               337.7785                19.5286

                     46                     47                     48
                      A                      A                      A
 Frequencies --   1284.8069              1290.6344              1318.3682
 Red. masses --      1.2435                 1.3367                 1.2309
 Frc consts  --      1.2094                 1.3119                 1.2605
 IR Inten    --     20.9955                29.4589                33.9543

                     49                     50                     51
                      A                      A                      A
 Frequencies --   1324.5865              1341.7468              1358.0568
 Red. masses --      1.3767                 1.3020                 1.2755
 Frc consts  --      1.4232                 1.3810                 1.3860
 IR Inten    --      9.8700                 3.6010                13.1513

                     52                     53                     54
                      A                      A                      A
 Frequencies --   1364.0492              1369.0731              1386.2341
 Red. masses --      1.2256                 1.4599                 1.4918
 Frc consts  --      1.3436                 1.6123                 1.6890
 IR Inten    --     11.3570                10.9417                 1.1357

                     55                     56                     57
                      A                      A                      A
 Frequencies --   1388.8148              1398.5189              1404.2659
 Red. masses --      1.3580                 1.2955                 1.3646
 Frc consts  --      1.5433                 1.4929                 1.5855
 IR Inten    --     13.8802                33.5696                 0.7500

                     58                     59                     60
                      A                      A                      A
 Frequencies --   1417.4972              1422.9567              1430.2700
 Red. masses --      1.4198                 1.3185                 1.3298
 Frc consts  --      1.6809                 1.5730                 1.6028
 IR Inten    --     34.0133                16.5900                 2.0168

                     61                     62                     63
                      A                      A                      A
 Frequencies --   1445.3265              1466.2196              1470.6238
 Red. masses --      1.4417                 1.1003                 1.1050
 Frc consts  --      1.7744                 1.3936                 1.4081
 IR Inten    --     57.8351                 6.7546                 5.7845

                     64                     65                     66
                      A                      A                      A
 Frequencies --   1476.9501              1480.9539              1491.2731
 Red. masses --      1.1076                 1.1258                 1.1296
 Frc consts  --      1.4235                 1.4548                 1.4800
 IR Inten    --      0.7860                10.5286                25.4514

                     67                     68                     69
                      A                      A                      A
 Frequencies --   1498.6795              1503.2099              1507.4975
 Red. masses --      1.0828                 1.0979                 1.1016
 Frc consts  --      1.4329                 1.4617                 1.4750
 IR Inten    --      4.0066                 5.5499                 9.2412

                     70                     71                     72
                      A                      A                      A
 Frequencies --   3033.5827              3034.4494              3036.1797
 Red. masses --      1.0703                 1.0703                 1.0702
 Frc consts  --      5.8031                 5.8066                 5.8125
 IR Inten    --     63.1108                59.8798                89.6271

                     73                     74                     75
                      A                      A                      A
 Frequencies --   3037.3114              3061.7167              3068.5561
 Red. masses --      1.0843                 1.0682                 1.0718
 Frc consts  --      5.8935                 5.9000                 5.9463
 IR Inten    --     77.6147                26.9450                 7.8425

                     76                     77                     78
                      A                      A                      A
 Frequencies --   3069.0133              3072.1893              3080.5169
 Red. masses --      1.0632                 1.0646                 1.0701
 Frc consts  --      5.9000                 5.9200                 5.9832
 IR Inten    --     52.5778                11.4278                57.3254

                     79                     80                     81
                      A                      A                      A
 Frequencies --   3088.8884              3119.5968              3122.8033
 Red. masses --      1.0634                 1.0978                 1.1008
 Frc consts  --      5.9781                 6.2948                 6.3248
 IR Inten    --     36.7358                40.8997                57.8347

                     82                     83                     84
                      A                      A                      A
 Frequencies --   3126.2262              3139.7186              3141.0244
 Red. masses --      1.1030                 1.1040                 1.0952
 Frc consts  --      6.3515                 6.4121                 6.3665
 IR Inten    --     44.6231                61.6793                59.9401

                     85                     86                     87
                      A                      A                      A
 Frequencies --   3141.0940              3142.8633              3151.2191
 Red. masses --      1.0958                 1.0958                 1.0976
 Frc consts  --      6.3702                 6.3774                 6.4216
 IR Inten    --     21.1222                33.0434                23.1573

 - Thermochemistry -
 -------------------
 Temperature   298.150 Kelvin.  Pressure   1.00000 Atm.
 Atom     1 has atomic number  6 and mass  12.00000

 Molecular mass:   186.12559 amu.
 Principal axes and moments of inertia in atomic units:
                           1         2         3
     Eigenvalues --   942.387324603.625905055.46272
           X            0.99997   0.00734   0.00032
           Y           -0.00734   0.99987  -0.01466
           Z           -0.00042   0.01466   0.99989
 This molecule is an asymmetric top.
 Rotational symmetry number  1.
 Warning -- assumption of classical behavior for rotation
           may cause significant error
 Rotational temperatures (Kelvin)      0.09191     0.01881     0.01713
 Rotational constants (GHZ):           1.91507     0.39203     0.35699
 Zero-point vibrational energy     737161.6 (Joules/Mol)
                                  176.18585 (Kcal/Mol)
 Warning -- explicit consideration of  18 degrees of freedom as
           vibrations may cause significant error
 Vibrational temperatures:     52.86    87.12   129.20   206.64   311.18
          (Kelvin)            342.60   365.80   403.19   475.80   522.84
                              556.00   620.42   648.31   676.34   691.00
                              732.02   803.86   872.60   965.06  1188.67
                             1194.24  1215.30  1238.46  1266.96  1295.77
                             1342.43  1348.59  1387.64  1407.77  1449.67
                             1458.41  1489.25  1523.63  1544.69  1566.21
                             1606.93  1628.21  1661.47  1684.09  1707.85
                             1721.42  1738.53  1777.29  1800.87  1831.72
                             1848.55  1856.94  1896.84  1905.78  1930.47
                             1953.94  1962.56  1969.79  1994.48  1998.19
                             2012.16  2020.43  2039.46  2047.32  2057.84
                             2079.50  2109.56  2115.90  2125.00  2130.76
                             2145.61  2156.27  2162.78  2168.95  4364.65
                             4365.90  4368.39  4370.01  4405.13  4414.97
                             4415.63  4420.20  4432.18  4444.22  4488.40
                             4493.02  4497.94  4517.35  4519.23  4519.33
                             4521.88  4533.90

 Zero-point correction=                           0.280770 (Hartree/Particle)
 Thermal correction to Energy=                    0.292517
 Thermal correction to Enthalpy=                  0.293461
 Thermal correction to Gibbs Free Energy=         0.242356
 Sum of electronic and zero-point Energies=           -617.224063
 Sum of electronic and thermal Energies=              -617.212316
 Sum of electronic and thermal Enthalpies=            -617.211372
 Sum of electronic and thermal Free Energies=         -617.262477

                     E (Thermal)             CV                S
                      KCal/Mol        Cal/Mol-Kelvin    Cal/Mol-Kelvin
 Total                  183.557             46.854            107.560
 Electronic               0.000              0.000              0.000
 Translational            0.889              2.981             41.570
 Rotational               0.889              2.981             31.462
 Vibrational            181.780             40.893             34.529
 Vibration     1          0.594              1.982              5.427
 Vibration     2          0.597              1.973              4.439
 Vibration     3          0.602              1.956              3.664
 Vibration     4          0.616              1.910              2.755
 Vibration     5          0.645              1.816              1.990
 Vibration     6          0.656              1.782              1.817
 Vibration     7          0.665              1.756              1.701
 Vibration     8          0.680              1.710              1.532
 Vibration     9          0.713              1.614              1.257
 Vibration    10          0.737              1.548              1.108
 Vibration    11          0.755              1.499              1.014
 Vibration    12          0.792              1.402              0.855
 Vibration    13          0.809              1.360              0.794
 Vibration    14          0.827              1.316              0.737
 Vibration    15          0.837              1.294              0.709
 Vibration    16          0.864              1.231              0.637
 Vibration    17          0.914              1.121              0.526
 Vibration    18          0.965              1.018              0.439

                           ! Non-Optimized Parameters !
 Normal termination of Gaussian 16 at Sat Mar  9 09:00:55 2019.
