 Gaussian 16, Revision B.01,
 Gaussian 16:  ES64L-G16RevB.01 20-Dec-2017

 ----------------------------------------------------------------------
 #M062X/6-311++G(2d,2p) opt=ModRedundant freq=noraman SCRF=(SMD,solvent
 =water)
 ----------------------------------------------------------------------

 --------------------------------
 4c1_b1_e3_4c1_PHI.inp_extract_17
 --------------------------------
 Symbolic Z-matrix:
 Charge =  0 Multiplicity = 1

 SCF Done:  E(RM062X) =  -617.503899178     A.U. after   12 cycles
 SCF Done:  E(RM062X) =  -617.505513986     A.U. after   10 cycles
 SCF Done:  E(RM062X) =  -617.505742851     A.U. after   10 cycles
 SCF Done:  E(RM062X) =  -617.505818280     A.U. after    9 cycles
 SCF Done:  E(RM062X) =  -617.505820411     A.U. after    8 cycles
 SCF Done:  E(RM062X) =  -617.505820925     A.U. after    8 cycles
 SCF Done:  E(RM062X) =  -617.505821010     A.U. after    7 cycles
 Optimization completed.
    -- Stationary point found.
 Normal termination of Gaussian 16 at Sat Mar  9 09:24:42 2019.

 ----------------------------------------------------------------------
 #N Geom=AllCheck Guess=TCheck SCRF=Check GenChk RM062X/6-311++G(2d,2p)
  Freq
 ----------------------------------------------------------------------

 Structure from the checkpoint file:  "4c1_b1_e3_4c1_PHI.inp_extract_17.chk"
 --------------------------------
 4c1_b1_e3_4c1_PHI.inp_extract_17
 --------------------------------
 Charge =  0 Multiplicity = 1

                         Standard orientation:
 ---------------------------------------------------------------------
 Center     Atomic      Atomic             Coordinates (Angstroms)
 Number     Number       Type             X           Y           Z
 ---------------------------------------------------------------------
      1          6           0       -2.244329   -1.273772    0.454647
      2          6           0       -2.930208    1.332650   -0.482198
      3          6           0        1.496468    0.802056    0.734457
      4          6           0       -1.145241   -0.252499    0.220094
      5          6           0       -1.584667    0.730380   -0.858463
      6          8           0        2.205436   -1.233188   -0.338621
      7          6           0        2.881822    1.406698    0.495736
      8          8           0       -3.917835    0.325278   -0.291753
      9          6           0        3.933089    0.307185    0.382543
     10          6           0        1.207249   -0.231791   -0.341570
     11          6           0        3.495390   -0.706718   -0.657310
     12          6           0       -3.552091   -0.561289    0.760780
     13          8           0        0.025923   -0.978476   -0.149348
     14          1           0       -2.363538   -1.883577   -0.443550
     15          1           0       -1.981129   -1.930117    1.284621
     16          1           0       -3.299273    1.984563   -1.270591
     17          1           0       -2.836293    1.919864    0.438424
     18          1           0        1.456664    0.302339    1.705670
     19          1           0        0.741574    1.587012    0.720725
     20          1           0       -0.964132    0.286752    1.154071
     21          1           0       -0.858105    1.534383   -0.984495
     22          1           0       -1.673820    0.197343   -1.808030
     23          1           0        3.127240    2.099820    1.299229
     24          1           0        2.863159    1.982838   -0.433397
     25          1           0        4.050554   -0.198596    1.343517
     26          1           0        4.902671    0.717882    0.099719
     27          1           0        1.190822    0.246033   -1.331071
     28          1           0        3.458310   -0.244778   -1.649864
     29          1           0        4.164703   -1.562820   -0.698312
     30          1           0       -3.464889    0.007753    1.693108
     31          1           0       -4.367610   -1.273012    0.865719
 ---------------------------------------------------------------------

 SCF Done:  E(RM062X) =  -617.505821009     A.U. after    1 cycles

 The electronic state is 1-A.
 Alpha  occ. eigenvalues --  -19.63321 -19.63244 -19.62924 -10.63451 -10.58560
 Alpha  occ. eigenvalues --  -10.57663 -10.57637 -10.57555 -10.52603 -10.52534
 Alpha  occ. eigenvalues --  -10.52490 -10.52485 -10.52235  -1.19962  -1.16197
 Alpha  occ. eigenvalues --   -1.13701  -0.90180  -0.89806  -0.86185  -0.84733
 Alpha  occ. eigenvalues --   -0.75009  -0.73610  -0.72120  -0.69445  -0.65928
 Alpha  occ. eigenvalues --   -0.64151  -0.60065  -0.57338  -0.56472  -0.54771
 Alpha  occ. eigenvalues --   -0.54261  -0.52601  -0.51634  -0.50873  -0.50337
 Alpha  occ. eigenvalues --   -0.49214  -0.47457  -0.45516  -0.45015  -0.43618
 Alpha  occ. eigenvalues --   -0.43250  -0.41516  -0.41208  -0.39921  -0.38910
 Alpha  occ. eigenvalues --   -0.38232  -0.37385  -0.36757  -0.34657  -0.33128
 Alpha  occ. eigenvalues --   -0.31869
 Alpha virt. eigenvalues --    0.00506   0.01283   0.01298   0.01631   0.02774
 Alpha virt. eigenvalues --    0.02908   0.02968   0.04131   0.04167   0.04766
 Alpha virt. eigenvalues --    0.05449   0.05566   0.05727   0.06134   0.07575

 Mulliken charges:
               1
     1  C   -0.220450
     2  C   -0.396577
     3  C   -0.221045
     4  C   -0.286356
     5  C   -0.081585
     6  O   -0.420421
     7  C   -0.479976
     8  O   -0.369180
     9  C   -0.340462
    10  C   -0.023065
    11  C   -0.088782
    12  C   -0.309429
    13  O   -0.423083
    14  H    0.197139
    15  H    0.183330
    16  H    0.214795
    17  H    0.176688
    18  H    0.229719
    19  H    0.185771
    20  H    0.304445
    21  H    0.187851
    22  H    0.221667
    23  H    0.172158
    24  H    0.192862
    25  H    0.164874
    26  H    0.185618
    27  H    0.292264
    28  H    0.142317
    29  H    0.220044
    30  H    0.155135
    31  H    0.233735
 Sum of Mulliken charges =  -0.00000

 Dipole moment (field-independent basis, Debye):
    X=              2.4100    Y=              4.5304    Z=              1.2389  Tot=              5.2790
 Quadrupole moment (field-independent basis, Debye-Ang):
   XX=            -81.7084   YY=            -82.4741   ZZ=            -77.2092
   XY=              5.6983   XZ=             -6.2342   YZ=             -2.0583

  Exact polarizability: 186.942   0.311 172.682  -3.338  -2.063 168.099
 Approx polarizability: 148.110   0.400 143.614  -1.444  -1.752 140.914

                      1                      2                      3
                      A                      A                      A
 Frequencies --     46.0712                72.9530                93.8494
 Red. masses --      3.9354                 3.3885                 3.6170
 Frc consts  --      0.0049                 0.0106                 0.0188
 IR Inten    --      1.0782                 1.6393                 0.2023

                      4                      5                      6
                      A                      A                      A
 Frequencies --    169.1934               195.6626               247.8738
 Red. masses --      3.4105                 3.5957                 1.9604
 Frc consts  --      0.0575                 0.0811                 0.0710
 IR Inten    --      1.8125                13.5402                 0.5369

                      7                      8                      9
                      A                      A                      A
 Frequencies --    260.9300               273.1297               318.0366
 Red. masses --      2.5517                 3.4680                 4.2359
 Frc consts  --      0.1024                 0.1524                 0.2524
 IR Inten    --      4.9950                 2.1957                 9.0899

                     10                     11                     12
                      A                      A                      A
 Frequencies --    352.0814               377.1861               446.2192
 Red. masses --      1.8777                 2.2340                 2.8767
 Frc consts  --      0.1371                 0.1873                 0.3375
 IR Inten    --      2.8482                10.7663                 5.2723

                     13                     14                     15
                      A                      A                      A
 Frequencies --    455.5087               481.0410               487.0643
 Red. masses --      3.4082                 2.9124                 2.3176
 Frc consts  --      0.4167                 0.3971                 0.3239
 IR Inten    --      0.4639                 2.7327                 0.6607

                     16                     17                     18
                      A                      A                      A
 Frequencies --    529.7022               543.9895               598.2128
 Red. masses --      4.1031                 2.0908                 2.1377
 Frc consts  --      0.6783                 0.3645                 0.4507
 IR Inten    --      8.2498                20.2671                 2.1092

                     19                     20                     21
                      A                      A                      A
 Frequencies --    670.6477               832.9859               843.6589
 Red. masses --      2.7674                 1.5144                 1.9784
 Frc consts  --      0.7334                 0.6191                 0.8297
 IR Inten    --     29.1743                 3.1499                 6.1108

                     22                     23                     24
                      A                      A                      A
 Frequencies --    844.9977               854.5583               882.7230
 Red. masses --      2.5111                 1.6016                 2.3072
 Frc consts  --      1.0564                 0.6891                 1.0592
 IR Inten    --     11.8464                19.7107                 4.8245

                     25                     26                     27
                      A                      A                      A
 Frequencies --    900.7341               940.7329               949.1969
 Red. masses --      2.4651                 1.8198                 2.4061
 Frc consts  --      1.1784                 0.9489                 1.2773
 IR Inten    --     35.6093                 2.8217                24.1136

                     28                     29                     30
                      A                      A                      A
 Frequencies --    961.1406               993.2253              1011.7058
 Red. masses --      1.8932                 1.8137                 1.5366
 Frc consts  --      1.0304                 1.0542                 0.9267
 IR Inten    --      5.1589                16.9629                16.0063

                     31                     32                     33
                      A                      A                      A
 Frequencies --   1019.2921              1038.3638              1075.6739
 Red. masses --      1.9310                 2.1626                 1.5895
 Frc consts  --      1.1821                 1.3738                 1.0836
 IR Inten    --     37.1950                34.9939                28.8573

                     34                     35                     36
                      A                      A                      A
 Frequencies --   1086.3503              1120.4761              1133.4461
 Red. masses --      2.8367                 3.0018                 3.3373
 Frc consts  --      1.9724                 2.2205                 2.5261
 IR Inten    --     85.5269                71.9945                28.3779

                     37                     38                     39
                      A                      A                      A
 Frequencies --   1156.2491              1162.9079              1173.0607
 Red. masses --      2.3602                 2.5647                 2.0380
 Frc consts  --      1.8591                 2.0435                 1.6524
 IR Inten    --     20.8742                61.3539               129.5344

                     40                     41                     42
                      A                      A                      A
 Frequencies --   1190.9402              1196.9317              1204.5607
 Red. masses --      1.8977                 1.6667                 1.4757
 Frc consts  --      1.5858                 1.4069                 1.2616
 IR Inten    --     44.8660                61.3119                33.9724

                     43                     44                     45
                      A                      A                      A
 Frequencies --   1255.4568              1259.3998              1274.0988
 Red. masses --      2.8024                 1.7585                 1.3557
 Frc consts  --      2.6025                 1.6433                 1.2966
 IR Inten    --    292.2360               192.9790                16.1015

                     46                     47                     48
                      A                      A                      A
 Frequencies --   1278.6696              1296.8849              1326.2111
 Red. masses --      1.2531                 1.2590                 1.3513
 Frc consts  --      1.2072                 1.2476                 1.4003
 IR Inten    --     27.3417                 5.1427                15.8318

                     49                     50                     51
                      A                      A                      A
 Frequencies --   1329.9611              1345.8489              1351.7379
 Red. masses --      1.4466                 1.3458                 1.2825
 Frc consts  --      1.5076                 1.4362                 1.3806
 IR Inten    --     59.9215                 7.7227                 0.6172

                     52                     53                     54
                      A                      A                      A
 Frequencies --   1363.4729              1369.1667              1389.5278
 Red. masses --      1.2274                 1.3270                 1.3264
 Frc consts  --      1.3444                 1.4657                 1.5089
 IR Inten    --     11.7307                 4.8408                25.3369

                     55                     56                     57
                      A                      A                      A
 Frequencies --   1390.5538              1397.1271              1404.0165
 Red. masses --      1.4931                 1.3234                 1.4228
 Frc consts  --      1.7010                 1.5220                 1.6525
 IR Inten    --      2.7738                89.2639                19.4703

                     58                     59                     60
                      A                      A                      A
 Frequencies --   1418.9741              1430.3360              1431.9210
 Red. masses --      1.4569                 1.3463                 1.4713
 Frc consts  --      1.7284                 1.6229                 1.7774
 IR Inten    --     30.1649                14.6570                21.3972

                     61                     62                     63
                      A                      A                      A
 Frequencies --   1439.0428              1468.6197              1471.1503
 Red. masses --      1.5892                 1.1066                 1.0982
 Frc consts  --      1.9390                 1.4062                 1.4004
 IR Inten    --     53.1994                 5.1906                 7.6392

                     64                     65                     66
                      A                      A                      A
 Frequencies --   1474.9830              1486.5454              1490.5947
 Red. masses --      1.1104                 1.1323                 1.1338
 Frc consts  --      1.4234                 1.4742                 1.4842
 IR Inten    --      7.1133                14.2126                17.9572

                     67                     68                     69
                      A                      A                      A
 Frequencies --   1500.0225              1506.9399              1509.2623
 Red. masses --      1.0829                 1.1068                 1.1021
 Frc consts  --      1.4356                 1.4808                 1.4791
 IR Inten    --      3.4928                11.8829                 7.1399

                     70                     71                     72
                      A                      A                      A
 Frequencies --   3009.7153              3035.5100              3038.6093
 Red. masses --      1.0827                 1.0702                 1.0702
 Frc consts  --      5.7786                 5.8101                 5.8220
 IR Inten    --     86.4897                62.4796                78.7512

                     73                     74                     75
                      A                      A                      A
 Frequencies --   3040.9873              3059.7004              3060.3699
 Red. masses --      1.0699                 1.0692                 1.0789
 Frc consts  --      5.8293                 5.8976                 5.9538
 IR Inten    --     68.7913                26.4550                 6.7380

                     76                     77                     78
                      A                      A                      A
 Frequencies --   3069.9880              3070.3374              3072.1884
 Red. masses --      1.0620                 1.0621                 1.0634
 Frc consts  --      5.8975                 5.8993                 5.9133
 IR Inten    --     25.7080                34.9098                48.4266

                     79                     80                     81
                      A                      A                      A
 Frequencies --   3075.6976              3119.5762              3121.5379
 Red. masses --      1.0634                 1.0964                 1.1029
 Frc consts  --      5.9268                 6.2867                 6.3318
 IR Inten    --     67.1166                34.5877                40.3005

                     82                     83                     84
                      A                      A                      A
 Frequencies --   3122.7728              3127.0156              3136.1454
 Red. masses --      1.1025                 1.1036                 1.0999
 Frc consts  --      6.3345                 6.3583                 6.3740
 IR Inten    --     63.4020                53.6942                40.2229

                     85                     86                     87
                      A                      A                      A
 Frequencies --   3141.4687              3143.0140              3144.5519
 Red. masses --      1.0954                 1.0965                 1.0960
 Frc consts  --      6.3695                 6.3818                 6.3851
 IR Inten    --     38.2724                37.9461                35.0361

 - Thermochemistry -
 -------------------
 Temperature   298.150 Kelvin.  Pressure   1.00000 Atm.
 Atom     1 has atomic number  6 and mass  12.00000

 Molecular mass:   186.12559 amu.
 Principal axes and moments of inertia in atomic units:
                           1         2         3
     Eigenvalues --   833.566304947.378825294.99760
           X            0.99996   0.00815  -0.00314
           Y           -0.00819   0.99986  -0.01441
           Z            0.00302   0.01444   0.99989
 This molecule is an asymmetric top.
 Rotational symmetry number  1.
 Warning -- assumption of classical behavior for rotation
           may cause significant error
 Rotational temperatures (Kelvin)      0.10391     0.01751     0.01636
 Rotational constants (GHZ):           2.16508     0.36479     0.34084
 Zero-point vibrational energy     738353.0 (Joules/Mol)
                                  176.47059 (Kcal/Mol)
 Warning -- explicit consideration of  18 degrees of freedom as
           vibrations may cause significant error
 Vibrational temperatures:     66.29   104.96   135.03   243.43   281.51
          (Kelvin)            356.64   375.42   392.97   457.58   506.57
                              542.69   642.01   655.38   692.11   700.78
                              762.12   782.68   860.69   964.91  1198.48
                             1213.84  1215.76  1229.52  1270.04  1295.96
                             1353.50  1365.68  1382.87  1429.03  1455.62
                             1466.53  1493.97  1547.65  1563.02  1612.12
                             1630.78  1663.58  1673.17  1687.77  1713.50
                             1722.12  1733.09  1806.32  1812.00  1833.14
                             1839.72  1865.93  1908.12  1913.52  1936.38
                             1944.85  1961.73  1969.93  1999.22  2000.70
                             2010.15  2020.07  2041.59  2057.93  2060.22
                             2070.46  2113.02  2116.66  2122.17  2138.81
                             2144.63  2158.20  2168.15  2171.49  4330.31
                             4367.42  4371.88  4375.30  4402.23  4403.19
                             4417.03  4417.53  4420.19  4425.24  4488.37
                             4491.20  4492.97  4499.08  4512.21  4519.87
                             4522.10  4524.31

 Zero-point correction=                           0.281224 (Hartree/Particle)
 Thermal correction to Energy=                    0.292872
 Thermal correction to Enthalpy=                  0.293816
 Thermal correction to Gibbs Free Energy=         0.243250
 Sum of electronic and zero-point Energies=           -617.224597
 Sum of electronic and thermal Energies=              -617.212949
 Sum of electronic and thermal Enthalpies=            -617.212005
 Sum of electronic and thermal Free Energies=         -617.262571

                     E (Thermal)             CV                S
                      KCal/Mol        Cal/Mol-Kelvin    Cal/Mol-Kelvin
 Total                  183.780             46.617            106.425
 Electronic               0.000              0.000              0.000
 Translational            0.889              2.981             41.570
 Rotational               0.889              2.981             31.457
 Vibrational            182.003             40.656             33.398
 Vibration     1          0.595              1.979              4.979
 Vibration     2          0.599              1.967              4.072
 Vibration     3          0.603              1.954              3.578
 Vibration     4          0.625              1.880              2.444
 Vibration     5          0.636              1.846              2.174
 Vibration     6          0.661              1.766              1.746
 Vibration     7          0.669              1.744              1.656
 Vibration     8          0.676              1.723              1.576
 Vibration     9          0.704              1.639              1.320
 Vibration    10          0.729              1.571              1.157
 Vibration    11          0.748              1.519              1.050
 Vibration    12          0.805              1.369              0.807
 Vibration    13          0.814              1.349              0.779
 Vibration    14          0.837              1.292              0.707
 Vibration    15          0.843              1.279              0.691
 Vibration    16          0.885              1.184              0.588
 Vibration    17          0.899              1.153              0.557
 Vibration    18          0.956              1.036              0.453

 Optimization completed.
    -- Stationary point found.
 Normal termination of Gaussian 16 at Sat Mar  9 10:27:52 2019.
