 Gaussian 16, Revision B.01,
 Gaussian 16:  ES64L-G16RevB.01 20-Dec-2017

 ----------------------------------------------------------------------
 #M062X/6-311++G(2d,2p) opt=ModRedundant freq=noraman SCRF=(SMD,solvent
 =water)
 ----------------------------------------------------------------------

 --------------------------------
 4c1_b1_e3_4c1_PHI.inp_extract_22
 --------------------------------
 Symbolic Z-matrix:
 Charge =  0 Multiplicity = 1

 SCF Done:  E(RM062X) =  -617.506095887     A.U. after   12 cycles
 SCF Done:  E(RM062X) =  -617.507699508     A.U. after   11 cycles
 SCF Done:  E(RM062X) =  -617.507815860     A.U. after    9 cycles
 SCF Done:  E(RM062X) =  -617.507825324     A.U. after    8 cycles
 SCF Done:  E(RM062X) =  -617.507826224     A.U. after    7 cycles
 Optimization completed.
    -- Stationary point found.
 Normal termination of Gaussian 16 at Sat Mar  9 10:27:30 2019.

 ----------------------------------------------------------------------
 #N Geom=AllCheck Guess=TCheck SCRF=Check GenChk RM062X/6-311++G(2d,2p)
  Freq
 ----------------------------------------------------------------------

 Structure from the checkpoint file:  "4c1_b1_e3_4c1_PHI.inp_extract_22.chk"
 --------------------------------
 4c1_b1_e3_4c1_PHI.inp_extract_22
 --------------------------------
 Charge =  0 Multiplicity = 1

                         Standard orientation:
 ---------------------------------------------------------------------
 Center     Atomic      Atomic             Coordinates (Angstroms)
 Number     Number       Type             X           Y           Z
 ---------------------------------------------------------------------
      1          6           0       -2.293973   -1.182398   -0.602583
      2          6           0       -2.960885    1.272906    0.697810
      3          6           0        2.115461   -1.327002    0.258246
      4          6           0       -1.203022   -0.366630    0.063517
      5          6           0       -1.589057    1.105801    0.061916
      6          8           0        1.774648    0.800614   -0.833639
      7          6           0        3.429189   -0.827278    0.857696
      8          8           0       -3.943091    0.497148    0.018494
      9          6           0        4.008000    0.279587   -0.019814
     10          6           0        1.174647   -0.163973    0.015936
     11          6           0        2.959257    1.352325   -0.252104
     12          6           0       -3.629437   -0.890947    0.065579
     13          8           0        0.015867   -0.597029   -0.647762
     14          1           0       -2.348466   -0.911732   -1.659400
     15          1           0       -2.072145   -2.247464   -0.530223
     16          1           0       -3.292450    2.307336    0.646525
     17          1           0       -2.930204    0.969593    1.750427
     18          1           0        2.294381   -1.816178   -0.702310
     19          1           0        1.621378   -2.040602    0.918523
     20          1           0       -1.078488   -0.711493    1.096003
     21          1           0       -0.859376    1.704318    0.609352
     22          1           0       -1.619245    1.460250   -0.970899
     23          1           0        4.134837   -1.650090    0.964664
     24          1           0        3.239760   -0.430048    1.858626
     25          1           0        4.314923   -0.131028   -0.984389
     26          1           0        4.884455    0.732564    0.444488
     27          1           0        0.913729    0.319976    0.964894
     28          1           0        2.696771    1.837050    0.695107
     29          1           0        3.306846    2.114810   -0.945328
     30          1           0       -3.607718   -1.217483    1.111294
     31          1           0       -4.439470   -1.409992   -0.441302
 ---------------------------------------------------------------------

 SCF Done:  E(RM062X) =  -617.507826224     A.U. after    1 cycles

 The electronic state is 1-A.
 Alpha  occ. eigenvalues --  -19.63370 -19.63050 -19.62932 -10.63225 -10.58625
 Alpha  occ. eigenvalues --  -10.57673 -10.57653 -10.57510 -10.52567 -10.52493
 Alpha  occ. eigenvalues --  -10.52439 -10.52314 -10.52238  -1.19810  -1.16184
 Alpha  occ. eigenvalues --   -1.13727  -0.90541  -0.89558  -0.86165  -0.84553
 Alpha  occ. eigenvalues --   -0.74425  -0.73105  -0.72584  -0.69855  -0.65867
 Alpha  occ. eigenvalues --   -0.64558  -0.59818  -0.57927  -0.55580  -0.54737
 Alpha  occ. eigenvalues --   -0.54355  -0.52576  -0.52344  -0.51072  -0.49660
 Alpha  occ. eigenvalues --   -0.48682  -0.46567  -0.46038  -0.45113  -0.44609
 Alpha  occ. eigenvalues --   -0.42430  -0.41511  -0.40264  -0.39967  -0.39124
 Alpha  occ. eigenvalues --   -0.38579  -0.37218  -0.37086  -0.34714  -0.33346
 Alpha  occ. eigenvalues --   -0.31849
 Alpha virt. eigenvalues --    0.00505   0.01276   0.01402   0.01465   0.02721
 Alpha virt. eigenvalues --    0.02839   0.02977   0.03985   0.04148   0.04667
 Alpha virt. eigenvalues --    0.05230   0.05456   0.05731   0.06255   0.07392

 Mulliken charges:
               1
     1  C   -0.173897
     2  C   -0.381042
     3  C   -0.291829
     4  C   -0.337182
     5  C   -0.093396
     6  O   -0.409882
     7  C   -0.379413
     8  O   -0.366253
     9  C   -0.354756
    10  C    0.057747
    11  C   -0.107669
    12  C   -0.282423
    13  O   -0.379944
    14  H    0.198858
    15  H    0.176671
    16  H    0.212680
    17  H    0.173518
    18  H    0.205043
    19  H    0.157427
    20  H    0.275861
    21  H    0.164152
    22  H    0.218714
    23  H    0.191236
    24  H    0.175935
    25  H    0.164980
    26  H    0.181872
    27  H    0.259233
    28  H    0.148823
    29  H    0.208769
    30  H    0.159135
    31  H    0.227036
 Sum of Mulliken charges =   0.00000

 Dipole moment (field-independent basis, Debye):
    X=              2.6479    Y=             -0.6447    Z=              4.7607  Tot=              5.4855
 Quadrupole moment (field-independent basis, Debye-Ang):
   XX=            -80.9014   YY=            -75.9996   ZZ=            -81.7685
   XY=              5.9056   XZ=              0.6199   YZ=              1.2784

  Exact polarizability: 185.329   4.362 174.727  -0.256   1.183 168.138
 Approx polarizability: 146.747   2.756 143.230   0.387   0.862 142.628

 ******    1 imaginary frequencies (negative Signs) ******

                      1                      2                      3
                      A                      A                      A
 Frequencies --    -26.9228                59.8215                72.6144
 Red. masses --      4.2918                 3.2190                 3.7562
 Frc consts  --      0.0018                 0.0068                 0.0117
 IR Inten    --      0.4892                 0.3628                 0.3267

                      4                      5                      6
                      A                      A                      A
 Frequencies --    149.3456               204.6877               244.7958
 Red. masses --      3.3777                 4.0621                 1.8441
 Frc consts  --      0.0444                 0.1003                 0.0651
 IR Inten    --      7.1893                 4.8422                 1.0714

                      7                      8                      9
                      A                      A                      A
 Frequencies --    251.0749               268.3634               324.7213
 Red. masses --      2.0904                 4.2790                 2.2752
 Frc consts  --      0.0776                 0.1816                 0.1413
 IR Inten    --      9.8478                 2.5472                 5.7905

                     10                     11                     12
                      A                      A                      A
 Frequencies --    360.4194               398.8799               438.0443
 Red. masses --      2.2265                 3.0956                 3.8330
 Frc consts  --      0.1704                 0.2902                 0.4333
 IR Inten    --      6.4473                 7.7923                 6.9020

                     13                     14                     15
                      A                      A                      A
 Frequencies --    450.5598               468.7244               502.5436
 Red. masses --      2.5259                 3.1283                 3.1959
 Frc consts  --      0.3021                 0.4049                 0.4755
 IR Inten    --      1.6086                 1.3730                 3.4684

                     16                     17                     18
                      A                      A                      A
 Frequencies --    511.3942               550.2496               592.7316
 Red. masses --      2.5301                 2.7668                 1.9496
 Frc consts  --      0.3899                 0.4936                 0.4036
 IR Inten    --      3.5344                 4.9869                15.6197

                     19                     20                     21
                      A                      A                      A
 Frequencies --    663.1325               831.8172               838.8449
 Red. masses --      2.6138                 1.4991                 1.8147
 Frc consts  --      0.6772                 0.6111                 0.7524
 IR Inten    --     26.9649                 2.6412                 2.8568

                     22                     23                     24
                      A                      A                      A
 Frequencies --    842.4991               862.8104               882.4915
 Red. masses --      2.5030                 1.9728                 1.8754
 Frc consts  --      1.0468                 0.8653                 0.8605
 IR Inten    --     16.6655                 9.6207                16.0723

                     25                     26                     27
                      A                      A                      A
 Frequencies --    898.1330               934.7413               942.9517
 Red. masses --      2.4715                 1.8732                 2.2823
 Frc consts  --      1.1746                 0.9643                 1.1957
 IR Inten    --     32.7517                14.2358                20.2264

                     28                     29                     30
                      A                      A                      A
 Frequencies --    962.4469               996.9859              1005.8879
 Red. masses --      2.1029                 1.6801                 1.4494
 Frc consts  --      1.1477                 0.9839                 0.8641
 IR Inten    --      4.3389                39.0075                20.9184

                     31                     32                     33
                      A                      A                      A
 Frequencies --   1017.9159              1034.0246              1062.5124
 Red. masses --      2.0428                 2.1650                 1.4934
 Frc consts  --      1.2471                 1.3639                 0.9933
 IR Inten    --     19.4877                40.9119                66.6017

                     34                     35                     36
                      A                      A                      A
 Frequencies --   1090.6438              1111.8932              1131.3156
 Red. masses --      2.7446                 3.1421                 3.2335
 Frc consts  --      1.9235                 2.2887                 2.4383
 IR Inten    --     95.6332                49.9129                54.0239

                     37                     38                     39
                      A                      A                      A
 Frequencies --   1136.6987              1157.2248              1172.0951
 Red. masses --      3.9415                 2.3514                 2.7716
 Frc consts  --      3.0006                 1.8553                 2.2434
 IR Inten    --    267.6644                 9.3723                64.5117

                     40                     41                     42
                      A                      A                      A
 Frequencies --   1185.2179              1195.0694              1209.1733
 Red. masses --      1.9559                 1.4713                 1.6205
 Frc consts  --      1.6188                 1.2381                 1.3960
 IR Inten    --     71.9219                42.4644                78.5406

                     43                     44                     45
                      A                      A                      A
 Frequencies --   1233.0973              1244.6549              1271.9322
 Red. masses --      2.6270                 1.9057                 1.3133
 Frc consts  --      2.3534                 1.7394                 1.2518
 IR Inten    --    346.9351                36.1567                14.6612

                     46                     47                     48
                      A                      A                      A
 Frequencies --   1278.5382              1285.5762              1318.7381
 Red. masses --      1.2387                 1.2993                 1.2595
 Frc consts  --      1.1930                 1.2652                 1.2905
 IR Inten    --     14.0619                 2.5247                31.0194

                     49                     50                     51
                      A                      A                      A
 Frequencies --   1325.5432              1340.8501              1351.1632
 Red. masses --      1.3520                 1.3223                 1.3034
 Frc consts  --      1.3997                 1.4007                 1.4019
 IR Inten    --     15.3611                 7.2576                 0.8017

                     52                     53                     54
                      A                      A                      A
 Frequencies --   1362.9405              1368.4357              1385.3205
 Red. masses --      1.1935                 1.4436                 1.5111
 Frc consts  --      1.3063                 1.5927                 1.7086
 IR Inten    --     19.9629                 0.5989                 4.7815

                     55                     56                     57
                      A                      A                      A
 Frequencies --   1388.9575              1395.1077              1404.5381
 Red. masses --      1.3164                 1.2838                 1.4554
 Frc consts  --      1.4962                 1.4722                 1.6916
 IR Inten    --     10.2824                31.8575                42.2097

                     58                     59                     60
                      A                      A                      A
 Frequencies --   1413.7741              1422.4978              1429.4224
 Red. masses --      1.5125                 1.3829                 1.3415
 Frc consts  --      1.7812                 1.6487                 1.6150
 IR Inten    --     67.5203                30.8080                 0.1625

                     61                     62                     63
                      A                      A                      A
 Frequencies --   1455.0194              1467.7102              1470.8447
 Red. masses --      1.3340                 1.1014                 1.1150
 Frc consts  --      1.6640                 1.3978                 1.4212
 IR Inten    --     28.6992                 4.7847                 3.3712

                     64                     65                     66
                      A                      A                      A
 Frequencies --   1473.7562              1482.4718              1489.7229
 Red. masses --      1.1484                 1.1344                 1.1271
 Frc consts  --      1.4696                 1.4688                 1.4738
 IR Inten    --     16.4845                 8.1184                29.0779

                     67                     68                     69
                      A                      A                      A
 Frequencies --   1499.2858              1504.2524              1508.2933
 Red. masses --      1.0828                 1.1000                 1.1015
 Frc consts  --      1.4341                 1.4665                 1.4764
 IR Inten    --      3.2454                 6.1327                 8.6067

                     70                     71                     72
                      A                      A                      A
 Frequencies --   3034.5286              3036.0265              3037.0591
 Red. masses --      1.0816                 1.0710                 1.0711
 Frc consts  --      5.8683                 5.8161                 5.8206
 IR Inten    --     28.3234                32.8422                73.7972

                     73                     74                     75
                      A                      A                      A
 Frequencies --   3037.5382              3043.4683              3059.0013
 Red. masses --      1.0707                 1.0837                 1.0687
 Frc consts  --      5.8205                 5.9143                 5.8920
 IR Inten    --     69.0817                92.8621                25.8891

                     76                     77                     78
                      A                      A                      A
 Frequencies --   3068.5258              3069.6860              3070.4210
 Red. masses --      1.0614                 1.0607                 1.0603
 Frc consts  --      5.8881                 5.8889                 5.8897
 IR Inten    --     26.7139                53.9551                22.4452

                     79                     80                     81
                      A                      A                      A
 Frequencies --   3074.4542              3117.4273              3119.9702
 Red. masses --      1.0614                 1.0979                 1.1008
 Frc consts  --      5.9110                 6.2865                 6.3133
 IR Inten    --     48.7893                43.3603                43.4057

                     82                     83                     84
                      A                      A                      A
 Frequencies --   3121.8312              3123.4677              3127.8240
 Red. masses --      1.1040                 1.1046                 1.1033
 Frc consts  --      6.3391                 6.3496                 6.3594
 IR Inten    --     36.0102                76.6345                45.9012

                     85                     86                     87
                      A                      A                      A
 Frequencies --   3141.6853              3143.0591              3145.0828
 Red. masses --      1.0961                 1.0951                 1.0958
 Frc consts  --      6.3741                 6.3742                 6.3862
 IR Inten    --     41.1469                40.7820                33.8591

 - Thermochemistry -
 -------------------
 Temperature   298.150 Kelvin.  Pressure   1.00000 Atm.
 Atom     1 has atomic number  6 and mass  12.00000

 Molecular mass:   186.12559 amu.
 Principal axes and moments of inertia in atomic units:
                           1         2         3
     Eigenvalues --   832.338375018.348595434.65625
           X            0.99999   0.00292   0.00243
           Y           -0.00294   0.99996   0.00879
           Z           -0.00240  -0.00880   0.99996
 This molecule is an asymmetric top.
 Rotational symmetry number  1.
 Warning -- assumption of classical behavior for rotation
           may cause significant error
 Rotational temperatures (Kelvin)      0.10406     0.01726     0.01594
 Rotational constants (GHZ):           2.16828     0.35963     0.33208
    1 imaginary frequencies ignored.
 Zero-point vibrational energy     736654.4 (Joules/Mol)
                                  176.06463 (Kcal/Mol)
 Warning -- explicit consideration of  17 degrees of freedom as
           vibrations may cause significant error
 Vibrational temperatures:     86.07   104.48   214.88   294.50   352.21
          (Kelvin)            361.24   386.12   467.20   518.56   573.90
                              630.25   648.26   674.39   723.05   735.78
                              791.69   852.81   954.10  1196.80  1206.91
                             1212.17  1241.39  1269.71  1292.21  1344.88
                             1356.70  1384.75  1434.44  1447.25  1464.55
                             1487.73  1528.72  1569.19  1599.77  1627.71
                             1635.46  1664.99  1686.38  1705.26  1719.44
                             1739.73  1774.15  1790.78  1830.03  1839.53
                             1849.66  1897.37  1907.16  1929.18  1944.02
                             1960.97  1968.87  1993.17  1998.40  2007.25
                             2020.82  2034.11  2046.66  2056.62  2093.45
                             2111.71  2116.22  2120.41  2132.95  2143.38
                             2157.14  2164.28  2170.10  4366.01  4368.16
                             4369.65  4370.34  4378.87  4401.22  4414.92
                             4416.59  4417.65  4423.45  4485.28  4488.94
                             4491.62  4493.97  4500.24  4520.18  4522.16
                             4525.07

 Zero-point correction=                           0.280577 (Hartree/Particle)
 Thermal correction to Energy=                    0.291493
 Thermal correction to Enthalpy=                  0.292437
 Thermal correction to Gibbs Free Energy=         0.243682
 Sum of electronic and zero-point Energies=           -617.227249
 Sum of electronic and thermal Energies=              -617.216334
 Sum of electronic and thermal Enthalpies=            -617.215389
 Sum of electronic and thermal Free Energies=         -617.264144

                     E (Thermal)             CV                S
                      KCal/Mol        Cal/Mol-Kelvin    Cal/Mol-Kelvin
 Total                  182.914             44.806            102.612
 Electronic               0.000              0.000              0.000
 Translational            0.889              2.981             41.570
 Rotational               0.889              2.981             31.496
 Vibrational            181.137             38.844             29.546
 Vibration     1          0.597              1.973              4.463
 Vibration     2          0.599              1.967              4.081
 Vibration     3          0.618              1.903              2.681
 Vibration     4          0.640              1.833              2.091
 Vibration     5          0.660              1.771              1.768
 Vibration     6          0.663              1.761              1.723
 Vibration     7          0.673              1.731              1.607
 Vibration     8          0.709              1.626              1.286
 Vibration     9          0.735              1.554              1.120
 Vibration    10          0.765              1.473              0.967
 Vibration    11          0.798              1.387              0.833
 Vibration    12          0.809              1.360              0.794
 Vibration    13          0.826              1.319              0.741
 Vibration    14          0.858              1.244              0.652
 Vibration    15          0.866              1.225              0.630
 Vibration    16          0.906              1.139              0.544
 Vibration    17          0.950              1.047              0.462

 Optimization completed.
    -- Stationary point found.
 Normal termination of Gaussian 16 at Sat Mar  9 11:28:37 2019.
