 Gaussian 16, Revision B.01,
 Gaussian 16:  ES64L-G16RevB.01 20-Dec-2017

 ----------------------------------------------------------------------
 #M062X/6-311++G(2d,2p) opt=ModRedundant freq=noraman SCRF=(SMD,solvent
 =water)
 ----------------------------------------------------------------------

 --------------------------------
 4c1_b1_e3_4c1_PHI.inp_extract_13
 --------------------------------
 Symbolic Z-matrix:
 Charge =  0 Multiplicity = 1

 SCF Done:  E(RM062X) =  -617.500608713     A.U. after   12 cycles
 SCF Done:  E(RM062X) =  -617.501794885     A.U. after   10 cycles
 SCF Done:  E(RM062X) =  -617.502145127     A.U. after   10 cycles
 SCF Done:  E(RM062X) =  -617.502363954     A.U. after    9 cycles
 SCF Done:  E(RM062X) =  -617.502375522     A.U. after    9 cycles
 SCF Done:  E(RM062X) =  -617.502377917     A.U. after    8 cycles
 SCF Done:  E(RM062X) =  -617.502378662     A.U. after    7 cycles
 SCF Done:  E(RM062X) =  -617.502378716     A.U. after    6 cycles
 Optimization completed.
    -- Stationary point found.
 Normal termination of Gaussian 16 at Sat Mar  9 08:29:33 2019.

 ----------------------------------------------------------------------
 #N Geom=AllCheck Guess=TCheck SCRF=Check GenChk RM062X/6-311++G(2d,2p)
  Freq
 ----------------------------------------------------------------------

 Structure from the checkpoint file:  "4c1_b1_e3_4c1_PHI.inp_extract_13.chk"
 --------------------------------
 4c1_b1_e3_4c1_PHI.inp_extract_13
 --------------------------------
 Charge =  0 Multiplicity = 1

                         Standard orientation:
 ---------------------------------------------------------------------
 Center     Atomic      Atomic             Coordinates (Angstroms)
 Number     Number       Type             X           Y           Z
 ---------------------------------------------------------------------
      1          6           0       -2.043286   -1.348398    0.047283
      2          6           0       -3.057606    1.315808    0.106546
      3          6           0        1.499415    1.109348    0.136997
      4          6           0       -1.076129   -0.181822   -0.080788
      5          6           0       -1.802173    1.006819   -0.695803
      6          8           0        2.008930   -1.246122   -0.073592
      7          6           0        2.996121    1.420230    0.226583
      8          8           0       -3.925041    0.188990    0.171151
      9          6           0        3.748252    0.217317    0.788476
     10          6           0        1.317136   -0.157630   -0.679376
     11          6           0        3.418951   -1.018983   -0.028077
     12          6           0       -3.287216   -0.913803    0.806631
     13          8           0        0.009955   -0.617150   -0.905013
     14          1           0       -2.327040   -1.686993   -0.951855
     15          1           0       -1.566099   -2.178564    0.568773
     16          1           0       -3.626126    2.120040   -0.354861
     17          1           0       -2.790345    1.619798    1.125105
     18          1           0        1.101836    0.967571    1.142182
     19          1           0        0.965180    1.930703   -0.337611
     20          1           0       -0.714247    0.077372    0.915081
     21          1           0       -1.166353    1.890900   -0.722169
     22          1           0       -2.079650    0.753756   -1.721733
     23          1           0        3.154452    2.301856    0.846134
     24          1           0        3.377080    1.651135   -0.771685
     25          1           0        3.454635    0.047145    1.826815
     26          1           0        4.825643    0.383767    0.768910
     27          1           0        1.755904   -0.005728   -1.672600
     28          1           0        3.792397   -0.905483   -1.052120
     29          1           0        3.856026   -1.917495    0.401574
     30          1           0       -3.025103   -0.632058    1.832718
     31          1           0       -4.019728   -1.716787    0.846133
 ---------------------------------------------------------------------

 SCF Done:  E(RM062X) =  -617.502378716     A.U. after    1 cycles

 The electronic state is 1-A.
 Alpha  occ. eigenvalues --  -19.63298 -19.62898 -19.62839 -10.63457 -10.58508
 Alpha  occ. eigenvalues --  -10.57602 -10.57592 -10.57422 -10.52649 -10.52602
 Alpha  occ. eigenvalues --  -10.52434 -10.52339 -10.52230  -1.19469  -1.16166
 Alpha  occ. eigenvalues --   -1.13415  -0.90330  -0.89830  -0.86069  -0.84631
 Alpha  occ. eigenvalues --   -0.75230  -0.73390  -0.72161  -0.69366  -0.66254
 Alpha  occ. eigenvalues --   -0.63816  -0.60024  -0.57302  -0.56101  -0.54544
 Alpha  occ. eigenvalues --   -0.54179  -0.52541  -0.52247  -0.50852  -0.50271
 Alpha  occ. eigenvalues --   -0.48789  -0.47443  -0.45567  -0.44747  -0.43958
 Alpha  occ. eigenvalues --   -0.42178  -0.42008  -0.40929  -0.39875  -0.38944
 Alpha  occ. eigenvalues --   -0.38116  -0.37455  -0.36697  -0.33872  -0.33125
 Alpha  occ. eigenvalues --   -0.32417
 Alpha virt. eigenvalues --    0.00445   0.01237   0.01335   0.01587   0.02819
 Alpha virt. eigenvalues --    0.02890   0.02988   0.03931   0.04099   0.04949
 Alpha virt. eigenvalues --    0.05178   0.05558   0.05784   0.05855   0.07574

 Mulliken charges:
               1
     1  C   -0.120652
     2  C   -0.388266
     3  C   -0.147967
     4  C   -0.154215
     5  C   -0.150416
     6  O   -0.412783
     7  C   -0.557533
     8  O   -0.368279
     9  C   -0.270799
    10  C   -0.049697
    11  C   -0.195698
    12  C   -0.306224
    13  O   -0.388057
    14  H    0.194826
    15  H    0.171905
    16  H    0.214205
    17  H    0.172140
    18  H    0.226427
    19  H    0.160210
    20  H    0.248659
    21  H    0.194208
    22  H    0.205901
    23  H    0.167402
    24  H    0.198225
    25  H    0.162374
    26  H    0.181477
    27  H    0.259041
    28  H    0.156133
    29  H    0.204758
    30  H    0.158444
    31  H    0.234251
 Sum of Mulliken charges =  -0.00000

 Dipole moment (field-independent basis, Debye):
    X=              3.3717    Y=              3.5054    Z=              1.8152  Tot=              5.1915
 Quadrupole moment (field-independent basis, Debye-Ang):
   XX=            -82.2070   YY=            -79.0464   ZZ=            -79.3711
   XY=              3.5903   XZ=             -2.7956   YZ=             -2.6014

  Exact polarizability: 187.004  -0.600 173.697  -0.758  -1.470 166.928
 Approx polarizability: 148.829   0.053 142.903   0.086  -1.262 140.975

 ******    1 imaginary frequencies (negative Signs) ******

                      1                      2                      3
                      A                      A                      A
 Frequencies --    -57.3798                66.2444                85.3901
 Red. masses --      3.4608                 3.6331                 4.1336
 Frc consts  --      0.0067                 0.0094                 0.0178
 IR Inten    --      2.6600                 1.0241                 0.2980

                      4                      5                      6
                      A                      A                      A
 Frequencies --    145.9405               217.5064               239.7591
 Red. masses --      3.2034                 4.1623                 1.9568
 Frc consts  --      0.0402                 0.1160                 0.0663
 IR Inten    --      5.0959                 4.3822                 5.2234

                      7                      8                      9
                      A                      A                      A
 Frequencies --    243.3623               283.1187               317.6407
 Red. masses --      2.2016                 3.0783                 3.4918
 Frc consts  --      0.0768                 0.1454                 0.2076
 IR Inten    --      4.3349                 3.1600                11.2164

                     10                     11                     12
                      A                      A                      A
 Frequencies --    362.5020               374.0818               431.6282
 Red. masses --      1.9954                 2.6022                 2.8234
 Frc consts  --      0.1545                 0.2145                 0.3099
 IR Inten    --      2.8390                10.2941                 6.1095

                     13                     14                     15
                      A                      A                      A
 Frequencies --    457.3971               471.9774               480.4276
 Red. masses --      4.0704                 3.2754                 2.3104
 Frc consts  --      0.5017                 0.4299                 0.3142
 IR Inten    --      0.6542                 1.9087                 4.2771

                     16                     17                     18
                      A                      A                      A
 Frequencies --    504.8222               551.7026               604.9701
 Red. masses --      3.2728                 1.9549                 2.1330
 Frc consts  --      0.4914                 0.3506                 0.4600
 IR Inten    --      2.9068                10.3527                17.5690

                     19                     20                     21
                      A                      A                      A
 Frequencies --    669.9497               825.7977               829.5255
 Red. masses --      3.2808                 2.0229                 1.5175
 Frc consts  --      0.8676                 0.8128                 0.6152
 IR Inten    --     12.8411                16.1522                 0.3688

                     22                     23                     24
                      A                      A                      A
 Frequencies --    846.9719               860.5283               880.2868
 Red. masses --      2.6352                 1.6116                 2.3477
 Frc consts  --      1.1138                 0.7031                 1.0719
 IR Inten    --     22.6764                13.8699                 1.1046

                     25                     26                     27
                      A                      A                      A
 Frequencies --    900.3183               931.3417               935.3139
 Red. masses --      2.3869                 2.1749                 2.0406
 Frc consts  --      1.1399                 1.1115                 1.0518
 IR Inten    --     26.0791                31.5828                25.4797

                     28                     29                     30
                      A                      A                      A
 Frequencies --    963.2291               976.8713              1006.0459
 Red. masses --      1.8455                 2.2132                 1.4768
 Frc consts  --      1.0088                 1.2444                 0.8807
 IR Inten    --     24.8221                10.2170                15.7489

                     31                     32                     33
                      A                      A                      A
 Frequencies --   1016.0131              1034.4193              1058.9777
 Red. masses --      2.0079                 2.0174                 1.5955
 Frc consts  --      1.2212                 1.2718                 1.0542
 IR Inten    --     49.5949                55.5364                88.2561

                     34                     35                     36
                      A                      A                      A
 Frequencies --   1074.1765              1089.5258              1114.0588
 Red. masses --      2.8780                 2.3945                 4.5347
 Frc consts  --      1.9565                 1.6747                 3.3160
 IR Inten    --     71.3405                58.6096               292.8825

                     37                     38                     39
                      A                      A                      A
 Frequencies --   1131.4710              1154.4512              1170.0312
 Red. masses --      3.1544                 2.3248                 2.5648
 Frc consts  --      2.3793                 1.8256                 2.0687
 IR Inten    --     53.4858                 1.3260                61.6097

                     40                     41                     42
                      A                      A                      A
 Frequencies --   1186.0271              1196.0438              1205.1102
 Red. masses --      2.0229                 1.4826                 1.5776
 Frc consts  --      1.6765                 1.2496                 1.3499
 IR Inten    --     67.7888                49.7517                21.3822

                     43                     44                     45
                      A                      A                      A
 Frequencies --   1234.2191              1257.6619              1272.2335
 Red. masses --      1.5627                 3.2511                 1.3085
 Frc consts  --      1.4025                 3.0297                 1.2478
 IR Inten    --     61.5223               350.8581                21.1559

                     46                     47                     48
                      A                      A                      A
 Frequencies --   1286.5669              1289.6475              1319.8497
 Red. masses --      1.2461                 1.3514                 1.2522
 Frc consts  --      1.2153                 1.3242                 1.2852
 IR Inten    --     18.2511                43.4984                38.6702

                     49                     50                     51
                      A                      A                      A
 Frequencies --   1324.2115              1338.4091              1356.7133
 Red. masses --      1.3716                 1.2901                 1.2736
 Frc consts  --      1.4171                 1.3616                 1.3812
 IR Inten    --     10.7663                 8.1787                11.6430

                     52                     53                     54
                      A                      A                      A
 Frequencies --   1365.3129              1370.9444              1385.9989
 Red. masses --      1.2999                 1.4027                 1.5020
 Frc consts  --      1.4277                 1.5533                 1.7000
 IR Inten    --      2.5611                15.7735                 1.5949

                     55                     56                     57
                      A                      A                      A
 Frequencies --   1387.7788              1398.1104              1406.2330
 Red. masses --      1.4445                 1.3062                 1.3139
 Frc consts  --      1.6391                 1.5043                 1.5308
 IR Inten    --     24.0938                23.6057                 4.0698

                     58                     59                     60
                      A                      A                      A
 Frequencies --   1420.0434              1426.6696              1430.4267
 Red. masses --      1.3635                 1.3180                 1.3084
 Frc consts  --      1.6200                 1.5806                 1.5773
 IR Inten    --     24.4640                17.7094                 1.7900

                     61                     62                     63
                      A                      A                      A
 Frequencies --   1445.2097              1468.9118              1470.6001
 Red. masses --      1.4053                 1.1082                 1.1225
 Frc consts  --      1.7293                 1.4089                 1.4303
 IR Inten    --     58.1293                 9.2178                 1.4437

                     64                     65                     66
                      A                      A                      A
 Frequencies --   1472.6510              1483.7294              1489.6467
 Red. masses --      1.0999                 1.1267                 1.1263
 Frc consts  --      1.4053                 1.4614                 1.4726
 IR Inten    --      8.6235                 8.2555                24.9946

                     67                     68                     69
                      A                      A                      A
 Frequencies --   1499.5282              1505.1004              1508.5499
 Red. masses --      1.0824                 1.0955                 1.1015
 Frc consts  --      1.4340                 1.4622                 1.4769
 IR Inten    --      3.1789                 5.7438                 9.3296

                     70                     71                     72
                      A                      A                      A
 Frequencies --   3032.3614              3034.1109              3035.7958
 Red. masses --      1.0840                 1.0702                 1.0703
 Frc consts  --      5.8727                 5.8048                 5.8116
 IR Inten    --     64.1020                59.4312                84.8845

                     73                     74                     75
                      A                      A                      A
 Frequencies --   3036.8415              3062.0272              3069.8566
 Red. masses --      1.0702                 1.0679                 1.0615
 Frc consts  --      5.8149                 5.8994                 5.8940
 IR Inten    --     84.8810                30.6154                47.5940

                     76                     77                     78
                      A                      A                      A
 Frequencies --   3071.0880              3072.8943              3087.2584
 Red. masses --      1.0617                 1.0658                 1.0698
 Frc consts  --      5.8996                 5.9296                 6.0076
 IR Inten    --     17.0048                29.3865                24.0223

                     79                     80                     81
                      A                      A                      A
 Frequencies --   3101.9398              3119.5594              3123.1977
 Red. masses --      1.0741                 1.0981                 1.1006
 Frc consts  --      6.0889                 6.2964                 6.3254
 IR Inten    --     30.0336                38.6047                59.7510

                     82                     83                     84
                      A                      A                      A
 Frequencies --   3126.6885              3137.0550              3139.7999
 Red. masses --      1.1025                 1.1004                 1.0961
 Frc consts  --      6.3506                 6.3803                 6.3666
 IR Inten    --     40.8964                56.6333                46.8295

                     85                     86                     87
                      A                      A                      A
 Frequencies --   3140.9777              3142.8641              3152.6047
 Red. masses --      1.0954                 1.0959                 1.1017
 Frc consts  --      6.3672                 6.3780                 6.4516
 IR Inten    --     41.1169                33.6761                38.1046

 - Thermochemistry -
 -------------------
 Temperature   298.150 Kelvin.  Pressure   1.00000 Atm.
 Atom     1 has atomic number  6 and mass  12.00000

 Molecular mass:   186.12559 amu.
 Principal axes and moments of inertia in atomic units:
                           1         2         3
     Eigenvalues --   899.556954770.420515218.53178
           X            0.99998   0.00656  -0.00009
           Y           -0.00656   0.99985  -0.01578
           Z           -0.00001   0.01578   0.99988
 This molecule is an asymmetric top.
 Rotational symmetry number  1.
 Warning -- assumption of classical behavior for rotation
           may cause significant error
 Rotational temperatures (Kelvin)      0.09629     0.01816     0.01660
 Rotational constants (GHZ):           2.00626     0.37832     0.34583
    1 imaginary frequencies ignored.
 Zero-point vibrational energy     736880.7 (Joules/Mol)
                                  176.11872 (Kcal/Mol)
 Warning -- explicit consideration of  17 degrees of freedom as
           vibrations may cause significant error
 Vibrational temperatures:     95.31   122.86   209.98   312.94   344.96
          (Kelvin)            350.14   407.34   457.01   521.56   538.22
                              621.02   658.09   679.07   691.23   726.33
                              793.78   870.42   963.91  1188.14  1193.50
                             1218.60  1238.11  1266.54  1295.36  1339.99
                             1345.71  1385.87  1405.50  1447.48  1461.82
                             1488.30  1523.63  1545.50  1567.58  1602.88
                             1627.93  1661.00  1683.41  1706.43  1720.84
                             1733.88  1775.77  1809.49  1830.46  1851.08
                             1855.52  1898.97  1905.25  1925.67  1952.01
                             1964.38  1972.48  1994.14  1996.70  2011.57
                             2023.26  2043.13  2052.66  2058.07  2079.33
                             2113.44  2115.87  2118.82  2134.76  2143.27
                             2157.49  2165.50  2170.47  4362.89  4365.41
                             4367.83  4369.34  4405.57  4416.84  4418.61
                             4421.21  4441.88  4463.00  4488.35  4493.58
                             4498.61  4513.52  4517.47  4519.17  4521.88
                             4535.90

 Zero-point correction=                           0.280663 (Hartree/Particle)
 Thermal correction to Energy=                    0.291578
 Thermal correction to Enthalpy=                  0.292522
 Thermal correction to Gibbs Free Energy=         0.243962
 Sum of electronic and zero-point Energies=           -617.221716
 Sum of electronic and thermal Energies=              -617.210801
 Sum of electronic and thermal Enthalpies=            -617.209857
 Sum of electronic and thermal Free Energies=         -617.258417

                     E (Thermal)             CV                S
                      KCal/Mol        Cal/Mol-Kelvin    Cal/Mol-Kelvin
 Total                  182.968             44.946            102.203
 Electronic               0.000              0.000              0.000
 Translational            0.889              2.981             41.570
 Rotational               0.889              2.981             31.482
 Vibrational            181.190             38.985             29.150
 Vibration     1          0.598              1.970              4.262
 Vibration     2          0.601              1.959              3.763
 Vibration     3          0.617              1.907              2.724
 Vibration     4          0.646              1.814              1.980
 Vibration     5          0.657              1.780              1.805
 Vibration     6          0.659              1.774              1.778
 Vibration     7          0.682              1.705              1.515
 Vibration     8          0.704              1.640              1.322
 Vibration     9          0.736              1.549              1.111
 Vibration    10          0.745              1.525              1.063
 Vibration    11          0.793              1.401              0.853
 Vibration    12          0.816              1.345              0.774
 Vibration    13          0.829              1.312              0.732
 Vibration    14          0.837              1.293              0.709
 Vibration    15          0.860              1.239              0.646
 Vibration    16          0.907              1.136              0.541
 Vibration    17          0.964              1.021              0.441

 Optimization completed.
    -- Stationary point found.
 Normal termination of Gaussian 16 at Sat Mar  9 09:33:51 2019.
