 Gaussian 16, Revision B.01,
 Gaussian 16:  ES64L-G16RevB.01 20-Dec-2017

 ----------------------------------------------------------------------
 #M062X/6-311++G(2d,2p) opt=ModRedundant freq=noraman SCRF=(SMD,solvent
 =water)
 ----------------------------------------------------------------------

 -------------------------------
 4c1_b1_e3_4c1_PHI.inp_extract_9
 -------------------------------
 Symbolic Z-matrix:
 Charge =  0 Multiplicity = 1

 SCF Done:  E(RM062X) =  -617.503689555     A.U. after   12 cycles
 SCF Done:  E(RM062X) =  -617.505286988     A.U. after   10 cycles
 SCF Done:  E(RM062X) =  -617.505432680     A.U. after    9 cycles
 SCF Done:  E(RM062X) =  -617.505474680     A.U. after    9 cycles
 SCF Done:  E(RM062X) =  -617.505476306     A.U. after    7 cycles
 SCF Done:  E(RM062X) =  -617.505476440     A.U. after    7 cycles
 Optimization completed.
    -- Stationary point found.
 Normal termination of Gaussian 16 at Sat Mar  9 07:21:56 2019.

 ----------------------------------------------------------------------
 #N Geom=AllCheck Guess=TCheck SCRF=Check GenChk RM062X/6-311++G(2d,2p)
  Freq
 ----------------------------------------------------------------------

 Structure from the checkpoint file:  "4c1_b1_e3_4c1_PHI.inp_extract_9.chk"
 -------------------------------
 4c1_b1_e3_4c1_PHI.inp_extract_9
 -------------------------------
 Charge =  0 Multiplicity = 1

                         Standard orientation:
 ---------------------------------------------------------------------
 Center     Atomic      Atomic             Coordinates (Angstroms)
 Number     Number       Type             X           Y           Z
 ---------------------------------------------------------------------
      1          6           0       -1.745535    1.129061    0.559202
      2          6           0       -3.106944   -1.010105   -0.757842
      3          6           0        1.897365   -1.317541    0.006059
      4          6           0       -0.989943   -0.149925    0.232179
      5          6           0       -1.957517   -1.321514    0.188390
      6          8           0        1.438272    1.046129    0.195758
      7          6           0        3.346247   -1.018874   -0.377930
      8          8           0       -3.783604    0.183316   -0.376594
      9          6           0        3.436719    0.366358   -1.012041
     10          6           0        1.343699   -0.196323    0.869905
     11          6           0        2.795856    1.390728   -0.093930
     12          6           0       -2.906315    1.304564   -0.408496
     13          8           0        0.003229   -0.416242    1.231575
     14          1           0       -2.130647    1.060002    1.579240
     15          1           0       -1.084063    1.993019    0.499741
     16          1           0       -3.848760   -1.805451   -0.747437
     17          1           0       -2.733376   -0.896912   -1.781879
     18          1           0        1.279015   -1.400994   -0.891336
     19          1           0        1.819093   -2.251814    0.562052
     20          1           0       -0.513339   -0.047302   -0.744569
     21          1           0       -1.442362   -2.224444   -0.142454
     22          1           0       -2.350152   -1.498178    1.192492
     23          1           0        3.725649   -1.784262   -1.053726
     24          1           0        3.968160   -1.042727    0.521187
     25          1           0        2.913754    0.373346   -1.971152
     26          1           0        4.473670    0.649727   -1.194405
     27          1           0        1.897473   -0.134867    1.812457
     28          1           0        3.353645    1.458500    0.846687
     29          1           0        2.762956    2.378287   -0.548279
     30          1           0       -2.531339    1.435101   -1.429982
     31          1           0       -3.504343    2.174767   -0.147517
 ---------------------------------------------------------------------

 SCF Done:  E(RM062X) =  -617.505476440     A.U. after    1 cycles

 The electronic state is 1-A.
 Alpha  occ. eigenvalues --  -19.63123 -19.63100 -19.62874 -10.63330 -10.58291
 Alpha  occ. eigenvalues --  -10.57593 -10.57567 -10.57540 -10.52493 -10.52364
 Alpha  occ. eigenvalues --  -10.52255 -10.52249 -10.52232  -1.19754  -1.16119
 Alpha  occ. eigenvalues --   -1.13412  -0.90455  -0.89486  -0.86000  -0.84487
 Alpha  occ. eigenvalues --   -0.75093  -0.73199  -0.72094  -0.69578  -0.66232
 Alpha  occ. eigenvalues --   -0.63756  -0.59877  -0.57794  -0.55314  -0.54861
 Alpha  occ. eigenvalues --   -0.54276  -0.52328  -0.52023  -0.51128  -0.49816
 Alpha  occ. eigenvalues --   -0.47942  -0.47576  -0.45543  -0.45007  -0.44207
 Alpha  occ. eigenvalues --   -0.42510  -0.41604  -0.40651  -0.39796  -0.39291
 Alpha  occ. eigenvalues --   -0.38785  -0.37165  -0.36838  -0.34285  -0.33127
 Alpha  occ. eigenvalues --   -0.31467
 Alpha virt. eigenvalues --    0.00402   0.01217   0.01393   0.01491   0.02808
 Alpha virt. eigenvalues --    0.02917   0.03040   0.03775   0.03977   0.04913
 Alpha virt. eigenvalues --    0.05423   0.05576   0.05780   0.05855   0.07423

 Mulliken charges:
               1
     1  C   -0.220885
     2  C   -0.309905
     3  C   -0.045565
     4  C   -0.175995
     5  C   -0.105947
     6  O   -0.390716
     7  C   -0.429282
     8  O   -0.371776
     9  C   -0.278820
    10  C   -0.329534
    11  C   -0.202540
    12  C   -0.311445
    13  O   -0.333660
    14  H    0.192968
    15  H    0.179568
    16  H    0.226954
    17  H    0.164209
    18  H    0.182793
    19  H    0.186104
    20  H    0.292422
    21  H    0.162518
    22  H    0.195456
    23  H    0.170545
    24  H    0.192525
    25  H    0.162373
    26  H    0.181084
    27  H    0.266141
    28  H    0.168474
    29  H    0.197442
    30  H    0.160938
    31  H    0.223558
 Sum of Mulliken charges =  -0.00000

 Dipole moment (field-independent basis, Debye):
    X=              4.5188    Y=             -0.7255    Z=             -2.2924  Tot=              5.1187
 Quadrupole moment (field-independent basis, Debye-Ang):
   XX=            -81.9025   YY=            -75.8471   ZZ=            -81.0877
   XY=              1.5836   XZ=              1.3112   YZ=              0.9879

  Exact polarizability: 183.079   2.146 175.849   0.457  -1.240 168.220
 Approx polarizability: 147.227   1.406 143.571   0.060  -1.500 141.422

                      1                      2                      3
                      A                      A                      A
 Frequencies --     32.3003                66.3731                71.2497
 Red. masses --      3.8028                 3.5512                 3.4379
 Frc consts  --      0.0023                 0.0092                 0.0103
 IR Inten    --      0.5544                 2.0107                 1.5055

                      4                      5                      6
                      A                      A                      A
 Frequencies --    141.2244               213.9432               241.4113
 Red. masses --      3.3643                 3.6658                 1.9038
 Frc consts  --      0.0395                 0.0989                 0.0654
 IR Inten    --      4.7349                 3.4127                 2.8939

                      7                      8                      9
                      A                      A                      A
 Frequencies --    251.5743               278.3589               342.7052
 Red. masses --      2.1790                 3.7403                 2.1815
 Frc consts  --      0.0813                 0.1708                 0.1510
 IR Inten    --      4.7567                 3.5296                 9.3232

                     10                     11                     12
                      A                      A                      A
 Frequencies --    359.1038               387.7938               439.8053
 Red. masses --      2.4957                 3.4625                 2.5062
 Frc consts  --      0.1896                 0.3068                 0.2856
 IR Inten    --     10.4075                10.2575                 4.6394

                     13                     14                     15
                      A                      A                      A
 Frequencies --    443.9221               469.2227               483.6430
 Red. masses --      4.2222                 3.4668                 2.3305
 Frc consts  --      0.4902                 0.4497                 0.3212
 IR Inten    --      0.5363                 6.0392                 3.1736

                     16                     17                     18
                      A                      A                      A
 Frequencies --    506.0269               556.9894               611.6416
 Red. masses --      3.5196                 1.8045                 2.0715
 Frc consts  --      0.5310                 0.3298                 0.4566
 IR Inten    --      8.4158                12.5364                20.4280

                     19                     20                     21
                      A                      A                      A
 Frequencies --    666.8283               830.3455               835.7498
 Red. masses --      3.5705                 1.4875                 1.9120
 Frc consts  --      0.9354                 0.6043                 0.7869
 IR Inten    --     11.4896                 2.0277                 3.9031

                     22                     23                     24
                      A                      A                      A
 Frequencies --    846.9778               858.2582               882.5299
 Red. masses --      2.4347                 1.7937                 2.1818
 Frc consts  --      1.0291                 0.7785                 1.0012
 IR Inten    --     13.9304                26.5055                 0.6731

                     25                     26                     27
                      A                      A                      A
 Frequencies --    898.1357               931.4081               947.0440
 Red. masses --      2.3221                 1.8273                 2.3103
 Frc consts  --      1.1036                 0.9340                 1.2208
 IR Inten    --     25.8060                 0.3494                31.0090

                     28                     29                     30
                      A                      A                      A
 Frequencies --    962.4212               981.3226               999.2824
 Red. masses --      1.7849                 2.4529                 1.4046
 Frc consts  --      0.9741                 1.3917                 0.8264
 IR Inten    --      2.8773                21.3685                15.1496

                     31                     32                     33
                      A                      A                      A
 Frequencies --   1008.2556              1032.2153              1062.8170
 Red. masses --      1.9079                 1.9916                 1.4697
 Frc consts  --      1.1427                 1.2502                 0.9781
 IR Inten    --     50.3873                34.5511                52.8696

                     34                     35                     36
                      A                      A                      A
 Frequencies --   1070.7579              1095.4543              1131.8896
 Red. masses --      2.7697                 2.6986                 3.1950
 Frc consts  --      1.8710                 1.9080                 2.4117
 IR Inten    --     35.6601                80.1474                72.6039

                     37                     38                     39
                      A                      A                      A
 Frequencies --   1135.7259              1152.5078              1172.6378
 Red. masses --      3.9754                 2.2917                 2.3428
 Frc consts  --      3.0212                 1.7935                 1.8980
 IR Inten    --    226.6198                10.5763                43.5811

                     40                     41                     42
                      A                      A                      A
 Frequencies --   1184.3677              1193.9142              1202.2896
 Red. masses --      1.8718                 1.7819                 1.4508
 Frc consts  --      1.5470                 1.4965                 1.2356
 IR Inten    --     62.9202                79.4740                27.6527

                     43                     44                     45
                      A                      A                      A
 Frequencies --   1239.4562              1259.9374              1268.4388
 Red. masses --      1.6831                 3.3001                 1.3198
 Frc consts  --      1.5235                 3.0866                 1.2511
 IR Inten    --     61.3355               368.7309                26.8415

                     46                     47                     48
                      A                      A                      A
 Frequencies --   1278.0321              1285.2936              1321.5496
 Red. masses --      1.3054                 1.3022                 1.2732
 Frc consts  --      1.2562                 1.2675                 1.3102
 IR Inten    --     39.3479                19.7139                53.4545

                     49                     50                     51
                      A                      A                      A
 Frequencies --   1324.3244              1333.3066              1349.9769
 Red. masses --      1.4385                 1.2746                 1.3027
 Frc consts  --      1.4865                 1.3350                 1.3987
 IR Inten    --      3.2877                 5.1635                13.5444

                     52                     53                     54
                      A                      A                      A
 Frequencies --   1364.6938              1366.1743              1384.4070
 Red. masses --      1.2054                 1.4240                 1.4990
 Frc consts  --      1.3227                 1.5660                 1.6927
 IR Inten    --      9.1393                 1.8757                 5.3980

                     55                     56                     57
                      A                      A                      A
 Frequencies --   1387.4517              1393.9112              1399.8509
 Red. masses --      1.4457                 1.3015                 1.3887
 Frc consts  --      1.6397                 1.4900                 1.6034
 IR Inten    --      0.5311                15.0797                10.3565

                     58                     59                     60
                      A                      A                      A
 Frequencies --   1417.3812              1422.6225              1429.9269
 Red. masses --      1.3867                 1.3866                 1.3466
 Frc consts  --      1.6414                 1.6534                 1.6222
 IR Inten    --     81.6127                28.4142                 8.0829

                     61                     62                     63
                      A                      A                      A
 Frequencies --   1437.0468              1468.2118              1469.4901
 Red. masses --      1.4679                 1.0999                 1.1203
 Frc consts  --      1.7860                 1.3969                 1.4253
 IR Inten    --     42.2496                 6.1829                 3.9838

                     64                     65                     66
                      A                      A                      A
 Frequencies --   1472.4377              1481.4386              1491.3937
 Red. masses --      1.1112                 1.1257                 1.1161
 Frc consts  --      1.4194                 1.4556                 1.4626
 IR Inten    --     12.2482                11.3225                25.4127

                     67                     68                     69
                      A                      A                      A
 Frequencies --   1499.5712              1505.4753              1508.8324
 Red. masses --      1.0840                 1.0993                 1.1004
 Frc consts  --      1.4363                 1.4679                 1.4759
 IR Inten    --      3.2583                 6.7138                 8.9105

                     70                     71                     72
                      A                      A                      A
 Frequencies --   3035.9136              3037.0760              3038.0101
 Red. masses --      1.0699                 1.0702                 1.0700
 Frc consts  --      5.8102                 5.8159                 5.8185
 IR Inten    --     28.3767               120.2163                60.4862

                     73                     74                     75
                      A                      A                      A
 Frequencies --   3052.3103              3058.7947              3067.8418
 Red. masses --      1.0846                 1.0686                 1.0617
 Frc consts  --      5.9536                 5.8906                 5.8871
 IR Inten    --     66.4590                22.7535                20.7203

                     76                     77                     78
                      A                      A                      A
 Frequencies --   3068.7999              3069.8298              3071.9701
 Red. masses --      1.0630                 1.0619                 1.0642
 Frc consts  --      5.8984                 5.8960                 5.9171
 IR Inten    --     30.5484                72.4461                15.2090

                     79                     80                     81
                      A                      A                      A
 Frequencies --   3088.7679              3118.5690              3121.2988
 Red. masses --      1.0808                 1.0956                 1.1033
 Frc consts  --      6.0751                 6.2780                 6.3329
 IR Inten    --     34.3251                41.5296                57.0295

                     82                     83                     84
                      A                      A                      A
 Frequencies --   3121.6218              3125.2110              3131.8918
 Red. masses --      1.1021                 1.1041                 1.1017
 Frc consts  --      6.3273                 6.3534                 6.3669
 IR Inten    --     42.8484                66.5479                46.8716

                     85                     86                     87
                      A                      A                      A
 Frequencies --   3140.7862              3141.5529              3142.5334
 Red. masses --      1.0955                 1.0964                 1.0962
 Frc consts  --      6.3671                 6.3752                 6.3781
 IR Inten    --     38.8555                40.8227                34.9976

 - Thermochemistry -
 -------------------
 Temperature   298.150 Kelvin.  Pressure   1.00000 Atm.
 Atom     1 has atomic number  6 and mass  12.00000

 Molecular mass:   186.12559 amu.
 Principal axes and moments of inertia in atomic units:
                           1         2         3
     Eigenvalues --   994.573794414.349824789.09101
           X            1.00000  -0.00104  -0.00248
           Y            0.00107   0.99992   0.01263
           Z            0.00247  -0.01263   0.99992
 This molecule is an asymmetric top.
 Rotational symmetry number  1.
 Warning -- assumption of classical behavior for rotation
           may cause significant error
 Rotational temperatures (Kelvin)      0.08709     0.01962     0.01809
 Rotational constants (GHZ):           1.81459     0.40884     0.37684
 Zero-point vibrational energy     736743.2 (Joules/Mol)
                                  176.08584 (Kcal/Mol)
 Warning -- explicit consideration of  18 degrees of freedom as
           vibrations may cause significant error
 Vibrational temperatures:     46.47    95.50   102.51   203.19   307.82
          (Kelvin)            347.34   361.96   400.50   493.08   516.67
                              557.95   632.78   638.70   675.11   695.85
                              728.06   801.38   880.02   959.42  1194.68
                             1202.46  1218.61  1234.84  1269.76  1292.22
                             1340.09  1362.59  1384.71  1411.90  1437.74
                             1450.65  1485.13  1529.16  1540.58  1576.11
                             1628.54  1634.06  1658.20  1687.16  1704.04
                             1717.78  1729.83  1783.30  1812.77  1825.00
                             1838.80  1849.25  1901.42  1905.41  1918.33
                             1942.32  1963.49  1965.62  1991.85  1996.23
                             2005.53  2014.07  2039.30  2046.84  2057.35
                             2067.59  2112.43  2114.27  2118.51  2131.46
                             2145.78  2157.55  2166.04  2170.87  4368.00
                             4369.67  4371.02  4391.59  4400.92  4413.94
                             4415.32  4416.80  4419.88  4444.05  4486.93
                             4490.85  4491.32  4496.48  4506.09  4518.89
                             4519.99  4521.40

 Zero-point correction=                           0.280611 (Hartree/Particle)
 Thermal correction to Energy=                    0.292387
 Thermal correction to Enthalpy=                  0.293331
 Thermal correction to Gibbs Free Energy=         0.241994
 Sum of electronic and zero-point Energies=           -617.224866
 Sum of electronic and thermal Energies=              -617.213090
 Sum of electronic and thermal Enthalpies=            -617.212146
 Sum of electronic and thermal Free Energies=         -617.263482

                     E (Thermal)             CV                S
                      KCal/Mol        Cal/Mol-Kelvin    Cal/Mol-Kelvin
 Total                  183.475             46.844            108.047
 Electronic               0.000              0.000              0.000
 Translational            0.889              2.981             41.570
 Rotational               0.889              2.981             31.420
 Vibrational            181.698             40.883             35.058
 Vibration     1          0.594              1.983              5.683
 Vibration     2          0.598              1.970              4.258
 Vibration     3          0.598              1.968              4.119
 Vibration     4          0.615              1.912              2.787
 Vibration     5          0.644              1.820              2.010
 Vibration     6          0.658              1.777              1.792
 Vibration     7          0.664              1.760              1.720
 Vibration     8          0.679              1.714              1.544
 Vibration     9          0.722              1.590              1.200
 Vibration    10          0.734              1.557              1.126
 Vibration    11          0.756              1.496              1.009
 Vibration    12          0.800              1.383              0.827
 Vibration    13          0.803              1.374              0.814
 Vibration    14          0.826              1.318              0.740
 Vibration    15          0.840              1.286              0.700
 Vibration    16          0.861              1.237              0.643
 Vibration    17          0.912              1.124              0.530
 Vibration    18          0.971              1.007              0.430

 Optimization completed.
    -- Stationary point found.
 Normal termination of Gaussian 16 at Sat Mar  9 08:26:32 2019.
