 Gaussian 16, Revision B.01,
 Gaussian 16:  ES64L-G16RevB.01 20-Dec-2017

 ----------------------------------------------------------------------
 #M062X/6-311++G(2d,2p) opt=ModRedundant freq=noraman SCRF=(SMD,solvent
 =water)
 ----------------------------------------------------------------------

 -------------------------------
 4c1_b1_e3_4c1_PHI.inp_extract_0
 -------------------------------
 Symbolic Z-matrix:
 Charge =  0 Multiplicity = 1

 SCF Done:  E(RM062X) =  -617.508266944     A.U. after   12 cycles
 SCF Done:  E(RM062X) =  -617.509811804     A.U. after   10 cycles
 SCF Done:  E(RM062X) =  -617.509921478     A.U. after    9 cycles
 SCF Done:  E(RM062X) =  -617.509931686     A.U. after    8 cycles
 SCF Done:  E(RM062X) =  -617.509932628     A.U. after    8 cycles
 SCF Done:  E(RM062X) =  -617.509932707     A.U. after    6 cycles
 Optimization completed.
    -- Stationary point found.
 Normal termination of Gaussian 16 at Sat Mar  9 05:01:20 2019.

 ----------------------------------------------------------------------
 #N Geom=AllCheck Guess=TCheck SCRF=Check GenChk RM062X/6-311++G(2d,2p)
  Freq
 ----------------------------------------------------------------------

 Structure from the checkpoint file:  "4c1_b1_e3_4c1_PHI.inp_extract_0.chk"
 -------------------------------
 4c1_b1_e3_4c1_PHI.inp_extract_0
 -------------------------------
 Charge =  0 Multiplicity = 1

                         Standard orientation:
 ---------------------------------------------------------------------
 Center     Atomic      Atomic             Coordinates (Angstroms)
 Number     Number       Type             X           Y           Z
 ---------------------------------------------------------------------
      1          6           0        1.735975    1.178051    0.273266
      2          6           0        3.503092   -1.027983   -0.127856
      3          6           0       -2.179028    0.958090   -0.918712
      4          6           0        1.165979   -0.188224   -0.078324
      5          6           0        2.182617   -0.976686   -0.881757
      6          8           0       -1.717680   -1.134842    0.197933
      7          6           0       -3.496348    1.085401   -0.153880
      8          8           0        3.992114    0.279042    0.155219
      9          6           0       -3.995707   -0.296038    0.262272
     10          6           0       -1.187397    0.148651   -0.111108
     11          6           0       -2.896966   -1.039122    1.000812
     12          6           0        3.078377    1.007757    0.968759
     13          8           0       -0.027464   -0.065812   -0.860969
     14          1           0        1.873035    1.748899   -0.647933
     15          1           0        1.057048    1.731405    0.923411
     16          1           0        4.269380   -1.525770   -0.717433
     17          1           0        3.379019   -1.574627    0.813706
     18          1           0       -2.336781    0.443047   -1.869428
     19          1           0       -1.745089    1.936131   -1.126803
     20          1           0        0.931395   -0.737443    0.839450
     21          1           0        1.822727   -1.990066   -1.061390
     22          1           0        2.332578   -0.487182   -1.846772
     23          1           0       -4.237840    1.600374   -0.763225
     24          1           0       -3.333687    1.692593    0.740665
     25          1           0       -4.279774   -0.871846   -0.621466
     26          1           0       -4.872031   -0.218697    0.906432
     27          1           0       -0.950608    0.658055    0.831461
     28          1           0       -2.651854   -0.523115    1.935998
     29          1           0       -3.185617   -2.061010    1.236055
     30          1           0        2.948146    0.481003    1.920835
     31          1           0        3.540633    1.971762    1.168140
 ---------------------------------------------------------------------

 SCF Done:  E(RM062X) =  -617.509932707     A.U. after    1 cycles

 The electronic state is 1-A.
 Alpha  occ. eigenvalues --  -19.63552 -19.62935 -19.62927 -10.63212 -10.58526
 Alpha  occ. eigenvalues --  -10.57658 -10.57654 -10.57472 -10.52541 -10.52527
 Alpha  occ. eigenvalues --  -10.52441 -10.52420 -10.52229  -1.19921  -1.16186
 Alpha  occ. eigenvalues --   -1.13634  -0.90678  -0.89493  -0.86148  -0.84538
 Alpha  occ. eigenvalues --   -0.74643  -0.72712  -0.72637  -0.69941  -0.65914
 Alpha  occ. eigenvalues --   -0.64413  -0.59917  -0.57621  -0.56712  -0.54357
 Alpha  occ. eigenvalues --   -0.54235  -0.52797  -0.51678  -0.50503  -0.50358
 Alpha  occ. eigenvalues --   -0.49303  -0.46356  -0.45589  -0.45129  -0.44338
 Alpha  occ. eigenvalues --   -0.42363  -0.41463  -0.40486  -0.39932  -0.39124
 Alpha  occ. eigenvalues --   -0.38869  -0.37270  -0.37015  -0.34448  -0.33160
 Alpha  occ. eigenvalues --   -0.32460
 Alpha virt. eigenvalues --    0.00485   0.01283   0.01362   0.01466   0.02721
 Alpha virt. eigenvalues --    0.02859   0.02913   0.03987   0.04065   0.04816
 Alpha virt. eigenvalues --    0.05182   0.05403   0.05798   0.05913   0.07321

 Mulliken charges:
               1
     1  C   -0.111896
     2  C   -0.302568
     3  C   -0.223806
     4  C   -0.284360
     5  C   -0.146797
     6  O   -0.417585
     7  C   -0.391380
     8  O   -0.366832
     9  C   -0.346035
    10  C   -0.061684
    11  C   -0.116399
    12  C   -0.373701
    13  O   -0.335410
    14  H    0.209182
    15  H    0.156284
    16  H    0.223579
    17  H    0.160131
    18  H    0.197690
    19  H    0.165440
    20  H    0.281931
    21  H    0.175735
    22  H    0.194368
    23  H    0.197415
    24  H    0.177011
    25  H    0.161907
    26  H    0.182697
    27  H    0.259290
    28  H    0.146184
    29  H    0.207519
    30  H    0.168883
    31  H    0.213210
 Sum of Mulliken charges =  -0.00000

 Dipole moment (field-independent basis, Debye):
    X=             -2.9063    Y=              1.4139    Z=              3.2445  Tot=              4.5796
 Quadrupole moment (field-independent basis, Debye-Ang):
   XX=            -82.2112   YY=            -78.0501   ZZ=            -78.8664
   XY=             -5.9685   XZ=             -1.1277   YZ=              0.4854

  Exact polarizability: 185.012  -0.033 173.044  -2.074   0.732 170.641
 Approx polarizability: 146.608   0.786 143.223  -2.279   0.952 142.888

                      1                      2                      3
                      A                      A                      A
 Frequencies --     33.8151                52.1635                72.3806
 Red. masses --      4.0723                 3.1726                 3.9195
 Frc consts  --      0.0027                 0.0051                 0.0121
 IR Inten    --      2.0108                 1.0718                 0.3025

                      4                      5                      6
                      A                      A                      A
 Frequencies --    151.8733               197.3163               243.6478
 Red. masses --      3.4360                 3.7320                 1.8839
 Frc consts  --      0.0467                 0.0856                 0.0659
 IR Inten    --      7.8483                 2.4037                 0.8278

                      7                      8                      9
                      A                      A                      A
 Frequencies --    245.7511               274.6355               340.4241
 Red. masses --      2.3141                 3.3697                 2.0491
 Frc consts  --      0.0823                 0.1497                 0.1399
 IR Inten    --      7.7847                 1.2654                 6.7646

                     10                     11                     12
                      A                      A                      A
 Frequencies --    362.1244               402.2091               437.9393
 Red. masses --      2.4501                 3.7273                 3.6015
 Frc consts  --      0.1893                 0.3553                 0.4070
 IR Inten    --     16.0626                 5.4644                 8.8477

                     13                     14                     15
                      A                      A                      A
 Frequencies --    446.3787               475.2941               495.7847
 Red. masses --      2.3933                 3.2325                 3.5080
 Frc consts  --      0.2810                 0.4302                 0.5080
 IR Inten    --      1.0462                 0.0648                 2.8764

                     16                     17                     18
                      A                      A                      A
 Frequencies --    511.7653               551.6305               591.1558
 Red. masses --      2.4574                 2.5908                 1.8844
 Frc consts  --      0.3792                 0.4645                 0.3880
 IR Inten    --      2.9159                 0.9473                11.6600

                     19                     20                     21
                      A                      A                      A
 Frequencies --    668.8279               831.2509               832.0265
 Red. masses --      2.8292                 1.5857                 1.7095
 Frc consts  --      0.7457                 0.6455                 0.6973
 IR Inten    --     24.6162                 2.3388                14.7835

                     22                     23                     24
                      A                      A                      A
 Frequencies --    843.7364               862.9147               883.8088
 Red. masses --      2.5526                 2.0429                 1.8383
 Frc consts  --      1.0707                 0.8963                 0.8460
 IR Inten    --     13.0724                11.6403                 8.0770

                     25                     26                     27
                      A                      A                      A
 Frequencies --    900.1527               931.5418               935.5159
 Red. masses --      2.4535                 2.3815                 1.8102
 Frc consts  --      1.1713                 1.2176                 0.9334
 IR Inten    --     29.7441                57.2006                 7.6873

                     28                     29                     30
                      A                      A                      A
 Frequencies --    960.1265               994.1191              1003.9399
 Red. masses --      2.0965                 1.7353                 1.4659
 Frc consts  --      1.1387                 1.0104                 0.8705
 IR Inten    --     16.2903                36.6595                17.1601

                     31                     32                     33
                      A                      A                      A
 Frequencies --   1017.6111              1034.8107              1054.7573
 Red. masses --      2.0400                 2.1555                 1.5684
 Frc consts  --      1.2446                 1.3599                 1.0280
 IR Inten    --     15.7946                43.0312               129.5948

                     34                     35                     36
                      A                      A                      A
 Frequencies --   1089.0067              1104.0754              1115.5012
 Red. masses --      2.5663                 3.0777                 4.4363
 Frc consts  --      1.7931                 2.2104                 3.2524
 IR Inten    --     54.0347                68.3405               282.1125

                     37                     38                     39
                      A                      A                      A
 Frequencies --   1131.8256              1156.4796              1171.5590
 Red. masses --      3.1613                 2.3282                 2.6867
 Frc consts  --      2.3860                 1.8346                 2.1727
 IR Inten    --     71.6659                20.8742                89.8630

                     40                     41                     42
                      A                      A                      A
 Frequencies --   1185.1839              1195.7485              1205.3919
 Red. masses --      1.8862                 1.5103                 1.6406
 Frc consts  --      1.5610                 1.2723                 1.4044
 IR Inten    --     54.6186                43.8869               107.9420

                     43                     44                     45
                      A                      A                      A
 Frequencies --   1220.8566              1237.9460              1272.2781
 Red. masses --      3.4076                 1.6292                 1.3029
 Frc consts  --      2.9925                 1.4711                 1.2426
 IR Inten    --    215.0561                34.2320                23.4263

                     46                     47                     48
                      A                      A                      A
 Frequencies --   1277.1345              1286.2411              1314.8818
 Red. masses --      1.2391                 1.3025                 1.2034
 Frc consts  --      1.1908                 1.2696                 1.2258
 IR Inten    --     13.4960                 5.3236                23.1531

                     49                     50                     51
                      A                      A                      A
 Frequencies --   1326.1566              1339.2930              1347.2529
 Red. masses --      1.3828                 1.3050                 1.2927
 Frc consts  --      1.4329                 1.3791                 1.3824
 IR Inten    --     12.2042                 4.0532                 2.8623

                     52                     53                     54
                      A                      A                      A
 Frequencies --   1363.3378              1367.5524              1383.7730
 Red. masses --      1.2011                 1.4429                 1.4955
 Frc consts  --      1.3153                 1.5899                 1.6872
 IR Inten    --     15.4594                 3.3308                 4.4822

                     55                     56                     57
                      A                      A                      A
 Frequencies --   1389.1172              1396.3893              1403.9633
 Red. masses --      1.3499                 1.2643                 1.4536
 Frc consts  --      1.5348                 1.4525                 1.6882
 IR Inten    --      8.6038                15.8803                25.4898

                     58                     59                     60
                      A                      A                      A
 Frequencies --   1411.5026              1421.3105              1430.7353
 Red. masses --      1.5204                 1.3451                 1.3339
 Frc consts  --      1.7847                 1.6010                 1.6088
 IR Inten    --    104.7030                12.3945                 1.2484

                     61                     62                     63
                      A                      A                      A
 Frequencies --   1450.2987              1466.8278              1470.4335
 Red. masses --      1.4107                 1.1020                 1.1087
 Frc consts  --      1.7482                 1.3970                 1.4124
 IR Inten    --     22.9010                 5.6704                 4.1971

                     64                     65                     66
                      A                      A                      A
 Frequencies --   1473.7663              1481.7940              1489.7166
 Red. masses --      1.1318                 1.1344                 1.1283
 Frc consts  --      1.4484                 1.4676                 1.4753
 IR Inten    --     11.0411                 8.1989                26.8357

                     67                     68                     69
                      A                      A                      A
 Frequencies --   1500.3092              1505.6329              1509.8703
 Red. masses --      1.0826                 1.0961                 1.1013
 Frc consts  --      1.4358                 1.4640                 1.4793
 IR Inten    --      2.8011                 5.1460                 8.7893

                     70                     71                     72
                      A                      A                      A
 Frequencies --   3030.8041              3036.8232              3037.0913
 Red. masses --      1.0827                 1.0705                 1.0700
 Frc consts  --      5.8598                 5.8168                 5.8150
 IR Inten    --     33.2483                83.5306                31.3031

                     73                     74                     75
                      A                      A                      A
 Frequencies --   3038.1947              3050.0972              3060.8679
 Red. masses --      1.0702                 1.0837                 1.0685
 Frc consts  --      5.8206                 5.9400                 5.8983
 IR Inten    --     98.9169                37.1627                22.8083

                     76                     77                     78
                      A                      A                      A
 Frequencies --   3069.5276              3070.2452              3071.1048
 Red. masses --      1.0618                 1.0608                 1.0611
 Frc consts  --      5.8942                 5.8916                 5.8966
 IR Inten    --     34.5616                13.5181                58.5773

                     79                     80                     81
                      A                      A                      A
 Frequencies --   3074.4027              3118.7786              3121.6865
 Red. masses --      1.0617                 1.0967                 1.1015
 Frc consts  --      5.9128                 6.2850                 6.3243
 IR Inten    --     52.4553                40.5370                53.6510

                     82                     83                     84
                      A                      A                      A
 Frequencies --   3123.4308              3126.1056              3127.5915
 Red. masses --      1.1033                 1.1044                 1.1033
 Frc consts  --      6.3416                 6.3591                 6.3588
 IR Inten    --     38.2653                62.1901                46.0728

                     85                     86                     87
                      A                      A                      A
 Frequencies --   3140.8110              3142.5423              3144.2266
 Red. masses --      1.0960                 1.0955                 1.0962
 Frc consts  --      6.3704                 6.3741                 6.3853
 IR Inten    --     41.8840                39.7692                33.0451

 - Thermochemistry -
 -------------------
 Temperature   298.150 Kelvin.  Pressure   1.00000 Atm.
 Atom     1 has atomic number  6 and mass  12.00000

 Molecular mass:   186.12559 amu.
 Principal axes and moments of inertia in atomic units:
                           1         2         3
     Eigenvalues --   834.877815119.680105354.54327
           X            0.99997  -0.00706  -0.00066
           Y            0.00707   0.99997   0.00436
           Z            0.00063  -0.00436   0.99999
 This molecule is an asymmetric top.
 Rotational symmetry number  1.
 Warning -- assumption of classical behavior for rotation
           may cause significant error
 Rotational temperatures (Kelvin)      0.10374     0.01692     0.01618
 Rotational constants (GHZ):           2.16168     0.35251     0.33705
 Zero-point vibrational energy     736414.6 (Joules/Mol)
                                  176.00731 (Kcal/Mol)
 Warning -- explicit consideration of  18 degrees of freedom as
           vibrations may cause significant error
 Vibrational temperatures:     48.65    75.05   104.14   218.51   283.89
          (Kelvin)            350.55   353.58   395.14   489.79   521.02
                              578.69   630.10   642.24   683.84   713.32
                              736.32   793.67   850.54   962.29  1195.98
                             1197.10  1213.95  1241.54  1271.60  1295.12
                             1340.28  1346.00  1381.41  1430.32  1444.45
                             1464.12  1488.86  1517.56  1566.84  1588.52
                             1604.96  1628.44  1663.92  1685.61  1705.22
                             1720.42  1734.29  1756.54  1781.13  1830.52
                             1837.51  1850.61  1891.82  1908.04  1926.94
                             1938.40  1961.54  1967.60  1990.94  1998.63
                             2009.09  2019.99  2030.84  2044.95  2058.51
                             2086.66  2110.44  2115.63  2120.42  2131.97
                             2143.37  2158.61  2166.27  2172.37  4360.65
                             4369.31  4369.70  4371.28  4388.41  4403.91
                             4416.37  4417.40  4418.63  4423.38  4487.23
                             4491.41  4493.92  4497.77  4499.91  4518.93
                             4521.42  4523.84

 Zero-point correction=                           0.280486 (Hartree/Particle)
 Thermal correction to Energy=                    0.292282
 Thermal correction to Enthalpy=                  0.293226
 Thermal correction to Gibbs Free Energy=         0.241691
 Sum of electronic and zero-point Energies=           -617.229447
 Sum of electronic and thermal Energies=              -617.217651
 Sum of electronic and thermal Enthalpies=            -617.216707
 Sum of electronic and thermal Free Energies=         -617.268241

                     E (Thermal)             CV                S
                      KCal/Mol        Cal/Mol-Kelvin    Cal/Mol-Kelvin
 Total                  183.409             46.833            108.463
 Electronic               0.000              0.000              0.000
 Translational            0.889              2.981             41.570
 Rotational               0.889              2.981             31.504
 Vibrational            181.632             40.872             35.389
 Vibration     1          0.594              1.983              5.592
 Vibration     2          0.596              1.977              4.734
 Vibration     3          0.598              1.967              4.088
 Vibration     4          0.619              1.901              2.649
 Vibration     5          0.637              1.844              2.158
 Vibration     6          0.659              1.773              1.776
 Vibration     7          0.660              1.770              1.761
 Vibration     8          0.677              1.720              1.567
 Vibration     9          0.720              1.595              1.210
 Vibration    10          0.736              1.550              1.113
 Vibration    11          0.768              1.465              0.955
 Vibration    12          0.798              1.387              0.833
 Vibration    13          0.806              1.369              0.807
 Vibration    14          0.832              1.305              0.723
 Vibration    15          0.851              1.259              0.669
 Vibration    16          0.867              1.224              0.629
 Vibration    17          0.907              1.136              0.541
 Vibration    18          0.949              1.051              0.465

 Optimization completed.
    -- Stationary point found.
 Normal termination of Gaussian 16 at Sat Mar  9 06:02:23 2019.
