 Gaussian 16, Revision B.01,
 Gaussian 16:  ES64L-G16RevB.01 20-Dec-2017

 ----------------------------------------------------------------------
 #M062X/6-311++G(2d,2p) opt=ModRedundant freq=noraman SCRF=(SMD,solvent
 =water)
 ----------------------------------------------------------------------

 --------------------------------
 4c1_b1_e3_4c1_PHI.inp_extract_15
 --------------------------------
 Symbolic Z-matrix:
 Charge =  0 Multiplicity = 1

 SCF Done:  E(RM062X) =  -617.500533380     A.U. after   12 cycles
 SCF Done:  E(RM062X) =  -617.501897095     A.U. after   10 cycles
 SCF Done:  E(RM062X) =  -617.502192366     A.U. after   10 cycles
 SCF Done:  E(RM062X) =  -617.502340616     A.U. after    9 cycles
 SCF Done:  E(RM062X) =  -617.502350179     A.U. after    8 cycles
 SCF Done:  E(RM062X) =  -617.502350719     A.U. after    7 cycles
 SCF Done:  E(RM062X) =  -617.502350918     A.U. after    7 cycles
 Optimization completed.
    -- Stationary point found.
 Normal termination of Gaussian 16 at Sat Mar  9 08:56:36 2019.

 ----------------------------------------------------------------------
 #N Geom=AllCheck Guess=TCheck SCRF=Check GenChk RM062X/6-311++G(2d,2p)
  Freq
 ----------------------------------------------------------------------

 Structure from the checkpoint file:  "4c1_b1_e3_4c1_PHI.inp_extract_15.chk"
 --------------------------------
 4c1_b1_e3_4c1_PHI.inp_extract_15
 --------------------------------
 Charge =  0 Multiplicity = 1

                         Standard orientation:
 ---------------------------------------------------------------------
 Center     Atomic      Atomic             Coordinates (Angstroms)
 Number     Number       Type             X           Y           Z
 ---------------------------------------------------------------------
      1          6           0       -2.121194   -1.321816    0.325641
      2          6           0       -3.047813    1.317081   -0.252505
      3          6           0        1.448543    0.950279    0.446493
      4          6           0       -1.112262   -0.221423    0.043947
      5          6           0       -1.746772    0.822791   -0.866189
      6          8           0        2.176162   -1.246335   -0.195148
      7          6           0        2.892021    1.453115    0.364532
      8          8           0       -3.953898    0.241741   -0.027969
      9          6           0        3.866435    0.302892    0.600792
     10          6           0        1.280046   -0.198215   -0.533377
     11          6           0        3.540264   -0.844010   -0.337994
     12          6           0       -3.404756   -0.715382    0.872200
     13          8           0        0.022181   -0.832292   -0.570259
     14          1           0       -2.336930   -1.856547   -0.602034
     15          1           0       -1.715968   -2.032301    1.046618
     16          1           0       -3.552810    2.015546   -0.915837
     17          1           0       -2.850076    1.823211    0.699317
     18          1           0        1.240983    0.587382    1.455161
     19          1           0        0.752364    1.755388    0.217286
     20          1           0       -0.827703    0.239595    0.990944
     21          1           0       -1.075664    1.667163   -1.026968
     22          1           0       -1.954078    0.362480   -1.835019
     23          1           0        3.047889    2.249532    1.090911
     24          1           0        3.067609    1.879194   -0.626822
     25          1           0        3.783648   -0.047761    1.631939
     26          1           0        4.896581    0.620386    0.437235
     27          1           0        1.524957    0.143462   -1.547434
     28          1           0        3.717419   -0.547209   -1.377568
     29          1           0        4.137830   -1.727022   -0.123660
     30          1           0       -3.213141   -0.230122    1.835899
     31          1           0       -4.165539   -1.479154    1.015794
 ---------------------------------------------------------------------

 SCF Done:  E(RM062X) =  -617.502350918     A.U. after    1 cycles

 The electronic state is 1-A.
 Alpha  occ. eigenvalues --  -19.63193 -19.63019 -19.62903 -10.63493 -10.58505
 Alpha  occ. eigenvalues --  -10.57620 -10.57602 -10.57464 -10.52634 -10.52596
 Alpha  occ. eigenvalues --  -10.52479 -10.52330 -10.52231  -1.19625  -1.16154
 Alpha  occ. eigenvalues --   -1.13500  -0.90234  -0.89838  -0.86088  -0.84694
 Alpha  occ. eigenvalues --   -0.75153  -0.73431  -0.72161  -0.69306  -0.66166
 Alpha  occ. eigenvalues --   -0.63919  -0.60142  -0.56869  -0.56757  -0.54555
 Alpha  occ. eigenvalues --   -0.54175  -0.52517  -0.52000  -0.50649  -0.50382
 Alpha  occ. eigenvalues --   -0.49153  -0.47426  -0.45521  -0.44856  -0.43566
 Alpha  occ. eigenvalues --   -0.42730  -0.41764  -0.41106  -0.39851  -0.38883
 Alpha  occ. eigenvalues --   -0.38159  -0.37315  -0.36914  -0.34132  -0.33121
 Alpha  occ. eigenvalues --   -0.32066
 Alpha virt. eigenvalues --    0.00482   0.01254   0.01314   0.01610   0.02784
 Alpha virt. eigenvalues --    0.02878   0.02977   0.04059   0.04118   0.04844
 Alpha virt. eigenvalues --    0.05312   0.05540   0.05787   0.05949   0.07678

 Mulliken charges:
               1
     1  C   -0.115898
     2  C   -0.405977
     3  C   -0.238304
     4  C   -0.242246
     5  C   -0.098603
     6  O   -0.395651
     7  C   -0.552730
     8  O   -0.366655
     9  C   -0.316331
    10  C    0.008508
    11  C   -0.116401
    12  C   -0.309506
    13  O   -0.442764
    14  H    0.196830
    15  H    0.177140
    16  H    0.212845
    17  H    0.173648
    18  H    0.228974
    19  H    0.168616
    20  H    0.308096
    21  H    0.187972
    22  H    0.206327
    23  H    0.169720
    24  H    0.195780
    25  H    0.161811
    26  H    0.182890
    27  H    0.269611
    28  H    0.147496
    29  H    0.214235
    30  H    0.156359
    31  H    0.234207
 Sum of Mulliken charges =  -0.00000

 Dipole moment (field-independent basis, Debye):
    X=              2.8806    Y=              4.2121    Z=              1.5447  Tot=              5.3316
 Quadrupole moment (field-independent basis, Debye-Ang):
   XX=            -82.4628   YY=            -81.1059   ZZ=            -77.8263
   XY=              4.6472   XZ=             -4.2340   YZ=             -2.8228

  Exact polarizability: 187.626  -0.111 172.909  -1.887  -1.898 167.262
 Approx polarizability: 148.736   0.404 143.171  -0.650  -1.541 140.793

 ******    1 imaginary frequencies (negative Signs) ******

                      1                      2                      3
                      A                      A                      A
 Frequencies --    -51.1604                76.5097                83.4986
 Red. masses --      4.1576                 3.3148                 4.0820
 Frc consts  --      0.0064                 0.0114                 0.0168
 IR Inten    --      1.6649                 1.8049                 0.0898

                      4                      5                      6
                      A                      A                      A
 Frequencies --    164.8680               209.6458               249.4452
 Red. masses --      3.1752                 3.8448                 2.0172
 Frc consts  --      0.0509                 0.0996                 0.0740
 IR Inten    --      2.2223                11.6659                 0.9428

                      7                      8                      9
                      A                      A                      A
 Frequencies --    264.1523               273.9631               304.5630
 Red. masses --      2.5548                 3.1080                 4.0531
 Frc consts  --      0.1050                 0.1374                 0.2215
 IR Inten    --      4.7336                 1.5261                12.6190

                     10                     11                     12
                      A                      A                      A
 Frequencies --    357.7928               373.7215               438.1041
 Red. masses --      1.8503                 2.3623                 2.8341
 Frc consts  --      0.1396                 0.1944                 0.3205
 IR Inten    --      1.1574                11.3082                 6.3891

                     13                     14                     15
                      A                      A                      A
 Frequencies --    461.5495               479.2697               487.8900
 Red. masses --      3.8191                 3.0315                 2.3002
 Frc consts  --      0.4793                 0.4103                 0.3226
 IR Inten    --      1.1218                 1.2760                 2.8172

                     16                     17                     18
                      A                      A                      A
 Frequencies --    515.1659               553.1640               603.1469
 Red. masses --      3.9852                 1.9043                 2.1933
 Frc consts  --      0.6232                 0.3433                 0.4701
 IR Inten    --      9.2662                12.5972                 7.9863

                     19                     20                     21
                      A                      A                      A
 Frequencies --    667.9199               832.1151               834.9880
 Red. masses --      2.8926                 1.4906                 2.0110
 Frc consts  --      0.7603                 0.6081                 0.8261
 IR Inten    --     20.2258                 2.8291                 6.6202

                     22                     23                     24
                      A                      A                      A
 Frequencies --    846.8427               860.2775               882.2915
 Red. masses --      2.7901                 1.5463                 2.3662
 Frc consts  --      1.1789                 0.6743                 1.0852
 IR Inten    --     22.8212                15.3160                 3.0608

                     25                     26                     27
                      A                      A                      A
 Frequencies --    899.8590               934.6688               939.4834
 Red. masses --      2.3802                 1.8475                 2.4815
 Frc consts  --      1.1356                 0.9509                 1.2904
 IR Inten    --     25.7947                 1.1178                31.1242

                     28                     29                     30
                      A                      A                      A
 Frequencies --    963.9779               983.8824              1007.2869
 Red. masses --      1.8790                 1.9523                 1.4567
 Frc consts  --      1.0288                 1.1135                 0.8708
 IR Inten    --     18.6070                13.7624                11.6927

                     31                     32                     33
                      A                      A                      A
 Frequencies --   1018.6843              1033.6320              1068.1354
 Red. masses --      1.9775                 2.0861                 1.4973
 Frc consts  --      1.2090                 1.3132                 1.0065
 IR Inten    --     42.3063                46.4946                38.3236

                     34                     35                     36
                      A                      A                      A
 Frequencies --   1079.0831              1102.5253              1125.0071
 Red. masses --      2.9510                 2.5765                 4.0054
 Frc consts  --      2.0245                 1.8453                 2.9868
 IR Inten    --     75.7024                64.9723               224.3743

                     37                     38                     39
                      A                      A                      A
 Frequencies --   1132.2786              1155.3977              1166.2688
 Red. masses --      3.5315                 2.3091                 2.5718
 Frc consts  --      2.6676                 1.8162                 2.0611
 IR Inten    --    135.7700                 6.6039                66.0939

                     40                     41                     42
                      A                      A                      A
 Frequencies --   1188.1954              1194.9319              1203.0555
 Red. masses --      1.8081                 1.6824                 1.4790
 Frc consts  --      1.5040                 1.4154                 1.2612
 IR Inten    --     39.4372                67.2271                22.0812

                     43                     44                     45
                      A                      A                      A
 Frequencies --   1240.5772              1260.3865              1271.2768
 Red. masses --      1.6256                 3.1608                 1.3385
 Frc consts  --      1.4741                 2.9584                 1.2746
 IR Inten    --     74.4571               364.6863                24.0132

                     46                     47                     48
                      A                      A                      A
 Frequencies --   1283.1629              1288.8833              1320.3854
 Red. masses --      1.3174                 1.2509                 1.2759
 Frc consts  --      1.2780                 1.2244                 1.3106
 IR Inten    --     38.1806                11.5045                27.0672

                     49                     50                     51
                      A                      A                      A
 Frequencies --   1324.4349              1338.3145              1355.0834
 Red. masses --      1.3826                 1.2951                 1.2819
 Frc consts  --      1.4289                 1.3667                 1.3869
 IR Inten    --     19.2035                 5.5583                 6.8596

                     52                     53                     54
                      A                      A                      A
 Frequencies --   1365.3177              1368.7334              1386.8266
 Red. masses --      1.2151                 1.3853                 1.3942
 Frc consts  --      1.3345                 1.5291                 1.5799
 IR Inten    --      9.4369                 2.2835                28.3440

                     55                     56                     57
                      A                      A                      A
 Frequencies --   1388.8763              1394.3323              1400.9659
 Red. masses --      1.4674                 1.2785                 1.4075
 Frc consts  --      1.6678                 1.4645                 1.6276
 IR Inten    --      7.0770                36.5363                 9.5538

                     58                     59                     60
                      A                      A                      A
 Frequencies --   1416.9507              1424.0441              1428.8916
 Red. masses --      1.4037                 1.3531                 1.3326
 Frc consts  --      1.6605                 1.6167                 1.6031
 IR Inten    --     32.7836                 4.6163                 8.9493

                     61                     62                     63
                      A                      A                      A
 Frequencies --   1437.4933              1469.0396              1471.6492
 Red. masses --      1.5287                 1.1096                 1.1000
 Frc consts  --      1.8612                 1.4108                 1.4037
 IR Inten    --     61.7029                 3.7909                 8.6361

                     64                     65                     66
                      A                      A                      A
 Frequencies --   1474.3254              1486.1647              1490.3024
 Red. masses --      1.1087                 1.1272                 1.1240
 Frc consts  --      1.4198                 1.4669                 1.4708
 IR Inten    --      9.6209                 7.7216                20.2851

                     67                     68                     69
                      A                      A                      A
 Frequencies --   1500.8660              1505.5781              1510.2077
 Red. masses --      1.0825                 1.0968                 1.1006
 Frc consts  --      1.4366                 1.4648                 1.4790
 IR Inten    --      3.1560                 6.8386                 8.8403

                     70                     71                     72
                      A                      A                      A
 Frequencies --   3013.9719              3034.5732              3037.4433
 Red. masses --      1.0833                 1.0701                 1.0701
 Frc consts  --      5.7981                 5.8059                 5.8168
 IR Inten    --     87.8749                62.4217                80.0276

                     73                     74                     75
                      A                      A                      A
 Frequencies --   3040.6917              3061.0505              3070.4672
 Red. masses --      1.0698                 1.0684                 1.0619
 Frc consts  --      5.8279                 5.8982                 5.8984
 IR Inten    --     71.5788                26.7456                36.9822

                     76                     77                     78
                      A                      A                      A
 Frequencies --   3071.0604              3072.5209              3077.9564
 Red. masses --      1.0614                 1.0629                 1.0641
 Frc consts  --      5.8982                 5.9120                 5.9394
 IR Inten    --     29.0705                31.2086                24.0782

                     79                     80                     81
                      A                      A                      A
 Frequencies --   3097.9548              3120.0538              3123.2220
 Red. masses --      1.0812                 1.0970                 1.1021
 Frc consts  --      6.1136                 6.2918                 6.3338
 IR Inten    --     35.7420                35.6713                60.9580

                     82                     83                     84
                      A                      A                      A
 Frequencies --   3124.9420              3128.5994              3140.6213
 Red. masses --      1.1025                 1.1029                 1.0954
 Frc consts  --      6.3434                 6.3603                 6.3658
 IR Inten    --     31.0232                73.0391                42.2543

                     85                     86                     87
                      A                      A                      A
 Frequencies --   3142.3772              3142.9196              3143.6034
 Red. masses --      1.0962                 1.0985                 1.0981
 Frc consts  --      6.3779                 6.3933                 6.3937
 IR Inten    --     32.5268                78.6612                 1.2558

 - Thermochemistry -
 -------------------
 Temperature   298.150 Kelvin.  Pressure   1.00000 Atm.
 Atom     1 has atomic number  6 and mass  12.00000

 Molecular mass:   186.12559 amu.
 Principal axes and moments of inertia in atomic units:
                           1         2         3
     Eigenvalues --   851.738404912.338305316.02665
           X            0.99997   0.00725  -0.00142
           Y           -0.00728   0.99980  -0.01873
           Z            0.00129   0.01873   0.99982
 This molecule is an asymmetric top.
 Rotational symmetry number  1.
 Warning -- assumption of classical behavior for rotation
           may cause significant error
 Rotational temperatures (Kelvin)      0.10169     0.01763     0.01629
 Rotational constants (GHZ):           2.11889     0.36739     0.33949
    1 imaginary frequencies ignored.
 Zero-point vibrational energy     737284.5 (Joules/Mol)
                                  176.21522 (Kcal/Mol)
 Warning -- explicit consideration of  17 degrees of freedom as
           vibrations may cause significant error
 Vibrational temperatures:    110.08   120.14   237.21   301.63   358.90
          (Kelvin)            380.06   394.17   438.20   514.78   537.70
                              630.33   664.07   689.56   701.96   741.21
                              795.88   867.79   960.99  1197.23  1201.36
                             1218.42  1237.75  1269.42  1294.70  1344.78
                             1351.71  1386.95  1415.59  1449.26  1465.66
                             1487.17  1536.81  1552.56  1586.29  1618.63
                             1629.10  1662.36  1678.00  1709.55  1719.24
                             1730.93  1784.91  1813.42  1829.08  1846.19
                             1854.42  1899.74  1905.57  1925.54  1949.66
                             1964.39  1969.30  1995.33  1998.28  2006.13
                             2015.68  2038.68  2048.88  2055.86  2068.23
                             2113.62  2117.37  2121.23  2138.26  2144.21
                             2159.41  2166.19  2172.85  4336.43  4366.07
                             4370.20  4374.88  4404.17  4417.72  4418.57
                             4420.67  4428.49  4457.27  4489.06  4493.62
                             4496.09  4501.36  4518.65  4521.18  4521.96
                             4522.94

 Zero-point correction=                           0.280817 (Hartree/Particle)
 Thermal correction to Energy=                    0.291648
 Thermal correction to Enthalpy=                  0.292592
 Thermal correction to Gibbs Free Energy=         0.244316
 Sum of electronic and zero-point Energies=           -617.221534
 Sum of electronic and thermal Energies=              -617.210703
 Sum of electronic and thermal Enthalpies=            -617.209759
 Sum of electronic and thermal Free Energies=         -617.258035

                     E (Thermal)             CV                S
                      KCal/Mol        Cal/Mol-Kelvin    Cal/Mol-Kelvin
 Total                  183.012             44.789            101.605
 Electronic               0.000              0.000              0.000
 Translational            0.889              2.981             41.570
 Rotational               0.889              2.981             31.476
 Vibrational            181.234             38.828             28.559
 Vibration     1          0.599              1.965              3.978
 Vibration     2          0.600              1.961              3.807
 Vibration     3          0.623              1.886              2.493
 Vibration     4          0.642              1.826              2.047
 Vibration     5          0.662              1.764              1.734
 Vibration     6          0.671              1.739              1.634
 Vibration     7          0.676              1.721              1.571
 Vibration     8          0.695              1.665              1.392
 Vibration     9          0.733              1.559              1.132
 Vibration    10          0.745              1.526              1.064
 Vibration    11          0.798              1.387              0.833
 Vibration    12          0.819              1.335              0.762
 Vibration    13          0.836              1.296              0.712
 Vibration    14          0.844              1.277              0.689
 Vibration    15          0.870              1.216              0.621
 Vibration    16          0.909              1.133              0.538
 Vibration    17          0.962              1.025              0.444

 Optimization completed.
    -- Stationary point found.
 Normal termination of Gaussian 16 at Sat Mar  9 10:00:20 2019.
