 Gaussian 16, Revision B.01,
 Gaussian 16:  ES64L-G16RevB.01 20-Dec-2017

 ----------------------------------------------------------------------
 #M062X/6-311++G(2d,2p) opt=ModRedundant freq=noraman SCRF=(SMD,solvent
 =water)
 ----------------------------------------------------------------------

 --------------------------------
 4c1_b1_e3_4c1_PHI.inp_extract_16
 --------------------------------
 Symbolic Z-matrix:
 Charge =  0 Multiplicity = 1

 SCF Done:  E(RM062X) =  -617.502176220     A.U. after   12 cycles
 SCF Done:  E(RM062X) =  -617.503661664     A.U. after   10 cycles
 SCF Done:  E(RM062X) =  -617.503953165     A.U. after   10 cycles
 SCF Done:  E(RM062X) =  -617.504045555     A.U. after    9 cycles
 SCF Done:  E(RM062X) =  -617.504055549     A.U. after    8 cycles
 SCF Done:  E(RM062X) =  -617.504056130     A.U. after    8 cycles
 SCF Done:  E(RM062X) =  -617.504056384     A.U. after    7 cycles
 Optimization completed.
    -- Stationary point found.
 Normal termination of Gaussian 16 at Sat Mar  9 09:03:32 2019.

 ----------------------------------------------------------------------
 #N Geom=AllCheck Guess=TCheck SCRF=Check GenChk RM062X/6-311++G(2d,2p)
  Freq
 ----------------------------------------------------------------------

 Structure from the checkpoint file:  "4c1_b1_e3_4c1_PHI.inp_extract_16.chk"
 --------------------------------
 4c1_b1_e3_4c1_PHI.inp_extract_16
 --------------------------------
 Charge =  0 Multiplicity = 1

                         Standard orientation:
 ---------------------------------------------------------------------
 Center     Atomic      Atomic             Coordinates (Angstroms)
 Number     Number       Type             X           Y           Z
 ---------------------------------------------------------------------
      1          6           0       -2.190061   -1.300938    0.400964
      2          6           0       -2.982191    1.329017   -0.379821
      3          6           0        1.452910    0.878094    0.579666
      4          6           0       -1.127107   -0.249552    0.133861
      5          6           0       -1.659419    0.762676   -0.873213
      6          8           0        2.210463   -1.243584   -0.252230
      7          6           0        2.866617    1.442400    0.419731
      8          8           0       -3.938137    0.296538   -0.161652
      9          6           0        3.900826    0.323754    0.497624
     10          6           0        1.243685   -0.226127   -0.443752
     11          6           0        3.538604   -0.771258   -0.487909
     12          6           0       -3.485322   -0.625694    0.824378
     13          8           0        0.025566   -0.932528   -0.355852
     14          1           0       -2.360755   -1.877764   -0.510630
     15          1           0       -1.859956   -1.983761    1.184296
     16          1           0       -3.416470    2.004632   -1.113138
     17          1           0       -2.832204    1.881091    0.555061
     18          1           0        1.325366    0.452694    1.577925
     19          1           0        0.718620    1.670790    0.446752
     20          1           0       -0.891071    0.254420    1.073791
     21          1           0       -0.952104    1.578408   -1.027709
     22          1           0       -1.812849    0.258092   -1.829990
     23          1           0        3.051453    2.197055    1.183007
     24          1           0        2.944607    1.938789   -0.551305
     25          1           0        3.919108   -0.097459    1.505238
     26          1           0        4.900490    0.696142    0.272344
     27          1           0        1.358588    0.177378   -1.459095
     28          1           0        3.608932   -0.398705   -1.515559
     29          1           0        4.186688   -1.638923   -0.389120
     30          1           0       -3.342668   -0.094156    1.771933
     31          1           0       -4.280174   -1.356348    0.954899
 ---------------------------------------------------------------------

 SCF Done:  E(RM062X) =  -617.504056384     A.U. after    1 cycles

 The electronic state is 1-A.
 Alpha  occ. eigenvalues --  -19.63254 -19.63156 -19.62913 -10.63500 -10.58529
 Alpha  occ. eigenvalues --  -10.57635 -10.57632 -10.57511 -10.52616 -10.52559
 Alpha  occ. eigenvalues --  -10.52514 -10.52403 -10.52230  -1.19818  -1.16171
 Alpha  occ. eigenvalues --   -1.13603  -0.90205  -0.89822  -0.86138  -0.84736
 Alpha  occ. eigenvalues --   -0.75088  -0.73536  -0.72127  -0.69365  -0.66072
 Alpha  occ. eigenvalues --   -0.64021  -0.60113  -0.57082  -0.56685  -0.54667
 Alpha  occ. eigenvalues --   -0.54210  -0.52555  -0.51785  -0.50725  -0.50445
 Alpha  occ. eigenvalues --   -0.49259  -0.47438  -0.45521  -0.44886  -0.43456
 Alpha  occ. eigenvalues --   -0.43108  -0.41646  -0.41173  -0.39911  -0.38878
 Alpha  occ. eigenvalues --   -0.38216  -0.37314  -0.36886  -0.34414  -0.33125
 Alpha  occ. eigenvalues --   -0.31952
 Alpha virt. eigenvalues --    0.00496   0.01267   0.01304   0.01624   0.02780
 Alpha virt. eigenvalues --    0.02892   0.02973   0.04112   0.04140   0.04794
 Alpha virt. eigenvalues --    0.05405   0.05546   0.05771   0.06043   0.07634

 Mulliken charges:
               1
     1  C   -0.165213
     2  C   -0.400586
     3  C   -0.228444
     4  C   -0.265079
     5  C   -0.084525
     6  O   -0.405531
     7  C   -0.529244
     8  O   -0.367530
     9  C   -0.332502
    10  C   -0.014096
    11  C   -0.096207
    12  C   -0.312375
    13  O   -0.439290
    14  H    0.198070
    15  H    0.180938
    16  H    0.213871
    17  H    0.175501
    18  H    0.228313
    19  H    0.178443
    20  H    0.313974
    21  H    0.187415
    22  H    0.212245
    23  H    0.171451
    24  H    0.195147
    25  H    0.163198
    26  H    0.184282
    27  H    0.284937
    28  H    0.143493
    29  H    0.218890
    30  H    0.155568
    31  H    0.234886
 Sum of Mulliken charges =  -0.00000

 Dipole moment (field-independent basis, Debye):
    X=              2.6249    Y=              4.3993    Z=              1.3466  Tot=              5.2969
 Quadrupole moment (field-independent basis, Debye-Ang):
   XX=            -82.1497   YY=            -81.9723   ZZ=            -77.3399
   XY=              5.3674   XZ=             -5.3083   YZ=             -2.4425

  Exact polarizability: 187.386   0.186 172.738  -2.633  -2.015 167.688
 Approx polarizability: 148.445   0.459 143.402  -1.069  -1.683 140.844

                      1                      2                      3
                      A                      A                      A
 Frequencies --      3.7088                68.9490                86.7617
 Red. masses --      3.9130                 3.4327                 3.9056
 Frc consts  --      0.0000                 0.0096                 0.0173
 IR Inten    --      1.2026                 1.5315                 0.2082

                      4                      5                      6
                      A                      A                      A
 Frequencies --    161.6878               200.9972               249.6957
 Red. masses --      3.3138                 3.5283                 1.9562
 Frc consts  --      0.0510                 0.0840                 0.0719
 IR Inten    --      3.0823                10.9102                 0.3323

                      7                      8                      9
                      A                      A                      A
 Frequencies --    261.0910               269.2827               309.4022
 Red. masses --      2.3422                 3.8451                 4.1492
 Frc consts  --      0.0941                 0.1643                 0.2340
 IR Inten    --      7.3166                 1.9179                 9.9286

                     10                     11                     12
                      A                      A                      A
 Frequencies --    353.4693               375.4899               441.6108
 Red. masses --      1.8477                 2.2683                 2.8363
 Frc consts  --      0.1360                 0.1884                 0.3259
 IR Inten    --      1.8552                10.8583                 5.5410

                     13                     14                     15
                      A                      A                      A
 Frequencies --    458.8932               479.7006               486.7813
 Red. masses --      3.6455                 2.8056                 2.4239
 Frc consts  --      0.4523                 0.3804                 0.3384
 IR Inten    --      0.9055                 1.9705                 1.3409

                     16                     17                     18
                      A                      A                      A
 Frequencies --    525.6612               551.3192               598.5612
 Red. masses --      4.2211                 1.9430                 2.2142
 Frc consts  --      0.6872                 0.3480                 0.4674
 IR Inten    --      9.3383                16.5637                 4.5234

                     19                     20                     21
                      A                      A                      A
 Frequencies --    668.8119               831.1245               842.0571
 Red. masses --      2.8061                 1.4957                 2.0074
 Frc consts  --      0.7395                 0.6087                 0.8386
 IR Inten    --     25.6189                 3.1354                 2.6792

                     22                     23                     24
                      A                      A                      A
 Frequencies --    845.4901               856.2579               881.7223
 Red. masses --      2.7122                 1.5283                 2.3603
 Frc consts  --      1.1423                 0.6602                 1.0811
 IR Inten    --     19.8067                17.2956                 3.8526

                     25                     26                     27
                      A                      A                      A
 Frequencies --    900.4198               938.9336               943.9438
 Red. masses --      2.4118                 1.8261                 2.4517
 Frc consts  --      1.1521                 0.9485                 1.2871
 IR Inten    --     31.6839                 1.9853                21.8046

                     28                     29                     30
                      A                      A                      A
 Frequencies --    961.7627               989.0899              1009.9821
 Red. masses --      1.8757                 1.8498                 1.4919
 Frc consts  --      1.0222                 1.0662                 0.8966
 IR Inten    --      9.2721                17.4971                11.5321

                     31                     32                     33
                      A                      A                      A
 Frequencies --   1018.6286              1036.2005              1071.7244
 Red. masses --      1.9485                 2.1384                 1.5374
 Frc consts  --      1.1912                 1.3528                 1.0404
 IR Inten    --     41.0844                35.5447                37.4444

                     34                     35                     36
                      A                      A                      A
 Frequencies --   1083.1124              1113.1098              1131.3776
 Red. masses --      2.7716                 2.8413                 3.2055
 Frc consts  --      1.9157                 2.0742                 2.4175
 IR Inten    --     71.0596                57.5860                50.5645

                     37                     38                     39
                      A                      A                      A
 Frequencies --   1153.2464              1157.4230              1165.0023
 Red. masses --      2.8349                 2.3649                 2.5592
 Frc consts  --      2.2214                 1.8666                 2.0465
 IR Inten    --    148.5796               100.7358                54.8066

                     40                     41                     42
                      A                      A                      A
 Frequencies --   1190.6455              1196.4081              1202.6586
 Red. masses --      1.7467                 1.6475                 1.5591
 Frc consts  --      1.4589                 1.3894                 1.3286
 IR Inten    --     34.6617                56.5948                43.8031

                     43                     44                     45
                      A                      A                      A
 Frequencies --   1249.3916              1256.6584              1273.1524
 Red. masses --      1.7212                 3.3004                 1.3291
 Frc consts  --      1.5830                 3.0708                 1.2693
 IR Inten    --    100.9043               379.8886                17.6235

                     46                     47                     48
                      A                      A                      A
 Frequencies --   1280.0940              1289.6579              1323.3754
 Red. masses --      1.2592                 1.2785                 1.3493
 Frc consts  --      1.2157                 1.2528                 1.3923
 IR Inten    --     19.2428                13.0720                23.7237

                     49                     50                     51
                      A                      A                      A
 Frequencies --   1325.7507              1342.2650              1350.8267
 Red. masses --      1.3767                 1.3139                 1.2907
 Frc consts  --      1.4256                 1.3947                 1.3876
 IR Inten    --     32.1010                 5.9178                 2.0400

                     52                     53                     54
                      A                      A                      A
 Frequencies --   1364.7817              1367.0014              1388.7505
 Red. masses --      1.2357                 1.3188                 1.4958
 Frc consts  --      1.3561                 1.4520                 1.6997
 IR Inten    --     10.0616                 1.6111                 3.6954

                     55                     56                     57
                      A                      A                      A
 Frequencies --   1389.0745              1392.3405              1403.1369
 Red. masses --      1.3538                 1.3057                 1.4290
 Frc consts  --      1.5391                 1.4913                 1.6576
 IR Inten    --     43.0602                58.2096                17.2385

                     58                     59                     60
                      A                      A                      A
 Frequencies --   1418.3952              1427.3657              1429.7978
 Red. masses --      1.4110                 1.4293                 1.3526
 Frc consts  --      1.6725                 1.7157                 1.6292
 IR Inten    --     35.2997                 0.2671                14.7812

                     61                     62                     63
                      A                      A                      A
 Frequencies --   1435.8090              1468.3138              1471.0855
 Red. masses --      1.5713                 1.0997                 1.1011
 Frc consts  --      1.9085                 1.3968                 1.4039
 IR Inten    --     57.1804                 6.0854                 6.0657

                     64                     65                     66
                      A                      A                      A
 Frequencies --   1475.8562              1482.9188              1489.3394
 Red. masses --      1.1043                 1.1306                 1.1302
 Frc consts  --      1.4172                 1.4648                 1.4770
 IR Inten    --      5.8697                 7.6370                23.9945

                     67                     68                     69
                      A                      A                      A
 Frequencies --   1501.3407              1503.8364              1509.9815
 Red. masses --      1.0828                 1.1002                 1.1010
 Frc consts  --      1.4380                 1.4659                 1.4790
 IR Inten    --      3.1794                 7.6366                 8.8259

                     70                     71                     72
                      A                      A                      A
 Frequencies --   3009.6349              3034.3049              3037.7460
 Red. masses --      1.0830                 1.0702                 1.0702
 Frc consts  --      5.7796                 5.8057                 5.8186
 IR Inten    --     90.1336                66.4514                76.0099

                     73                     74                     75
                      A                      A                      A
 Frequencies --   3041.8513              3061.0032              3069.6466
 Red. masses --      1.0698                 1.0685                 1.0636
 Frc consts  --      5.8324                 5.8988                 5.9050
 IR Inten    --     71.2294                24.0368                21.6768

                     76                     77                     78
                      A                      A                      A
 Frequencies --   3070.0056              3072.2848              3075.0549
 Red. masses --      1.0639                 1.0629                 1.0634
 Frc consts  --      5.9078                 5.9109                 5.9243
 IR Inten    --     47.6199                 8.6146                26.6374

                     79                     80                     81
                      A                      A                      A
 Frequencies --   3084.4516              3119.2264              3122.4835
 Red. masses --      1.0770                 1.0968                 1.1022
 Frc consts  --      6.0368                 6.2875                 6.3317
 IR Inten    --     68.1029                36.4399                61.4494

                     82                     83                     84
                      A                      A                      A
 Frequencies --   3124.2765              3127.9410              3139.4566
 Red. masses --      1.1026                 1.1035                 1.1003
 Frc consts  --      6.3414                 6.3612                 6.3895
 IR Inten    --     37.6278                60.5014                42.4646

                     85                     86                     87
                      A                      A                      A
 Frequencies --   3141.5815              3143.0795              3143.7176
 Red. masses --      1.0953                 1.0965                 1.0960
 Frc consts  --      6.3691                 6.3822                 6.3821
 IR Inten    --     39.8468                36.1120                33.9919

 - Thermochemistry -
 -------------------
 Temperature   298.150 Kelvin.  Pressure   1.00000 Atm.
 Atom     1 has atomic number  6 and mass  12.00000

 Molecular mass:   186.12559 amu.
 Principal axes and moments of inertia in atomic units:
                           1         2         3
     Eigenvalues --   839.018984926.621225313.98177
           X            0.99997   0.00790  -0.00237
           Y           -0.00794   0.99983  -0.01644
           Z            0.00224   0.01646   0.99986
 This molecule is an asymmetric top.
 Rotational symmetry number  1.
 Warning -- assumption of classical behavior for rotation
           may cause significant error
 Rotational temperatures (Kelvin)      0.10323     0.01758     0.01630
 Rotational constants (GHZ):           2.15101     0.36632     0.33962
 Zero-point vibrational energy     737499.2 (Joules/Mol)
                                  176.26654 (Kcal/Mol)
 Warning -- explicit consideration of  18 degrees of freedom as
           vibrations may cause significant error
 Vibrational temperatures:      5.34    99.20   124.83   232.63   289.19
          (Kelvin)            359.26   375.65   387.44   445.16   508.56
                              540.25   635.38   660.24   690.18   700.37
                              756.31   793.23   861.20   962.27  1195.80
                             1211.53  1216.47  1231.96  1268.60  1295.50
                             1350.92  1358.12  1383.76  1423.08  1453.14
                             1465.58  1490.86  1541.97  1558.36  1601.52
                             1627.80  1659.26  1665.27  1676.18  1713.07
                             1721.36  1730.36  1797.60  1808.05  1831.78
                             1841.77  1855.53  1904.04  1907.46  1931.22
                             1943.54  1963.62  1966.81  1998.10  1998.57
                             2003.27  2018.80  2040.75  2053.66  2057.16
                             2065.81  2112.58  2116.56  2123.43  2133.59
                             2142.83  2160.09  2163.69  2172.53  4330.19
                             4365.69  4370.64  4376.55  4404.10  4416.54
                             4417.05  4420.33  4424.32  4437.84  4487.87
                             4492.56  4495.14  4500.41  4516.98  4520.04
                             4522.19  4523.11

 Zero-point correction=                           0.280899 (Hartree/Particle)
 Thermal correction to Energy=                    0.292688
 Thermal correction to Enthalpy=                  0.293632
 Thermal correction to Gibbs Free Energy=         0.240505
 Sum of electronic and zero-point Energies=           -617.223158
 Sum of electronic and thermal Energies=              -617.211369
 Sum of electronic and thermal Enthalpies=            -617.210424
 Sum of electronic and thermal Free Energies=         -617.263552

                     E (Thermal)             CV                S
                      KCal/Mol        Cal/Mol-Kelvin    Cal/Mol-Kelvin
 Total                  183.664             46.727            111.816
 Electronic               0.000              0.000              0.000
 Translational            0.889              2.981             41.570
 Rotational               0.889              2.981             31.463
 Vibrational            181.887             40.766             38.783
 Vibration     1          0.593              1.987              9.982
 Vibration     2          0.598              1.969              4.183
 Vibration     3          0.601              1.958              3.732
 Vibration     4          0.622              1.889              2.530
 Vibration     5          0.638              1.838              2.124
 Vibration     6          0.662              1.763              1.733
 Vibration     7          0.669              1.744              1.654
 Vibration     8          0.674              1.730              1.601
 Vibration     9          0.699              1.656              1.366
 Vibration    10          0.730              1.568              1.151
 Vibration    11          0.746              1.522              1.057
 Vibration    12          0.801              1.379              0.822
 Vibration    13          0.817              1.341              0.769
 Vibration    14          0.836              1.295              0.711
 Vibration    15          0.843              1.279              0.692
 Vibration    16          0.881              1.193              0.597
 Vibration    17          0.907              1.137              0.541
 Vibration    18          0.957              1.035              0.452

 Optimization completed.
    -- Stationary point found.
 Normal termination of Gaussian 16 at Sat Mar  9 10:05:44 2019.
