 Gaussian 16, Revision B.01,
 Gaussian 16:  ES64L-G16RevB.01 20-Dec-2017

 ----------------------------------------------------------------------
 #M062X/6-311++G(2d,2p) opt=ModRedundant freq=noraman SCRF=(SMD,solvent
 =water)
 ----------------------------------------------------------------------

 --------------------------------
 4c1_b1_e3_4c1_PHI.inp_extract_21
 --------------------------------
 Symbolic Z-matrix:
 Charge =  0 Multiplicity = 1

 SCF Done:  E(RM062X) =  -617.505378182     A.U. after   12 cycles
 SCF Done:  E(RM062X) =  -617.506960476     A.U. after   10 cycles
 SCF Done:  E(RM062X) =  -617.507075991     A.U. after    9 cycles
 SCF Done:  E(RM062X) =  -617.507087057     A.U. after    8 cycles
 SCF Done:  E(RM062X) =  -617.507088209     A.U. after    7 cycles
 SCF Done:  E(RM062X) =  -617.507088338     A.U. after    7 cycles
 Optimization completed.
    -- Stationary point found.
 Normal termination of Gaussian 16 at Sat Mar  9 10:25:25 2019.

 ----------------------------------------------------------------------
 #N Geom=AllCheck Guess=TCheck SCRF=Check GenChk RM062X/6-311++G(2d,2p)
  Freq
 ----------------------------------------------------------------------

 Structure from the checkpoint file:  "4c1_b1_e3_4c1_PHI.inp_extract_21.chk"
 --------------------------------
 4c1_b1_e3_4c1_PHI.inp_extract_21
 --------------------------------
 Charge =  0 Multiplicity = 1

                         Standard orientation:
 ---------------------------------------------------------------------
 Center     Atomic      Atomic             Coordinates (Angstroms)
 Number     Number       Type             X           Y           Z
 ---------------------------------------------------------------------
      1          6           0       -2.249804   -1.106812   -0.716436
      2          6           0       -3.026296    1.177656    0.813072
      3          6           0        1.976454   -1.277055    0.315836
      4          6           0       -1.190140   -0.288398   -0.003790
      5          6           0       -1.662943    1.151861    0.138191
      6          8           0        1.918801    0.806810   -0.907449
      7          6           0        3.298587   -0.878292    0.969601
      8          8           0       -3.977950    0.409137    0.084150
      9          6           0        4.038021    0.106531    0.067416
     10          6           0        1.179884   -0.039173   -0.046517
     11          6           0        3.124010    1.265579   -0.287593
     12          6           0       -3.582915   -0.956286    0.000754
     13          8           0        0.018048   -0.375866   -0.763376
     14          1           0       -2.346193   -0.748733   -1.743917
     15          1           0       -1.964312   -2.158732   -0.743495
     16          1           0       -3.418081    2.190885    0.863586
     17          1           0       -2.952478    0.782254    1.832429
     18          1           0        2.158716   -1.835467   -0.605443
     19          1           0        1.372499   -1.898292    0.978585
     20          1           0       -1.017402   -0.717505    0.989566
     21          1           0       -0.957846    1.743245    0.723633
     22          1           0       -1.740846    1.594956   -0.857138
     23          1           0        3.906813   -1.760072    1.166783
     24          1           0        3.095750   -0.401805    1.932579
     25          1           0        4.351126   -0.393313   -0.852016
     26          1           0        4.931304    0.495457    0.556965
     27          1           0        0.919041    0.525261    0.857264
     28          1           0        2.864120    1.832426    0.613395
     29          1           0        3.587633    1.943097   -1.000757
     30          1           0       -3.516574   -1.371232    1.012712
     31          1           0       -4.373606   -1.476732   -0.534522
 ---------------------------------------------------------------------

 SCF Done:  E(RM062X) =  -617.507088338     A.U. after    1 cycles

 The electronic state is 1-A.
 Alpha  occ. eigenvalues --  -19.63295 -19.63159 -19.62930 -10.63243 -10.58646
 Alpha  occ. eigenvalues --  -10.57662 -10.57649 -10.57559 -10.52562 -10.52500
 Alpha  occ. eigenvalues --  -10.52427 -10.52292 -10.52257  -1.19854  -1.16191
 Alpha  occ. eigenvalues --   -1.13773  -0.90433  -0.89635  -0.86151  -0.84552
 Alpha  occ. eigenvalues --   -0.74390  -0.73123  -0.72665  -0.69829  -0.65719
 Alpha  occ. eigenvalues --   -0.64677  -0.59862  -0.57955  -0.55346  -0.54948
 Alpha  occ. eigenvalues --   -0.54356  -0.52623  -0.52234  -0.51004  -0.49677
 Alpha  occ. eigenvalues --   -0.48495  -0.46813  -0.46058  -0.45254  -0.44639
 Alpha  occ. eigenvalues --   -0.42544  -0.41526  -0.40190  -0.39948  -0.39160
 Alpha  occ. eigenvalues --   -0.38662  -0.37292  -0.37031  -0.34667  -0.33276
 Alpha  occ. eigenvalues --   -0.31752
 Alpha virt. eigenvalues --    0.00496   0.01290   0.01413   0.01468   0.02740
 Alpha virt. eigenvalues --    0.02821   0.02985   0.04004   0.04158   0.04672
 Alpha virt. eigenvalues --    0.05239   0.05488   0.05729   0.06242   0.07364

 Mulliken charges:
               1
     1  C   -0.152743
     2  C   -0.368858
     3  C   -0.240500
     4  C   -0.356439
     5  C   -0.086670
     6  O   -0.406976
     7  C   -0.383115
     8  O   -0.366469
     9  C   -0.339654
    10  C   -0.003623
    11  C   -0.110912
    12  C   -0.277463
    13  O   -0.383959
    14  H    0.198692
    15  H    0.171670
    16  H    0.215859
    17  H    0.169758
    18  H    0.208041
    19  H    0.153926
    20  H    0.273119
    21  H    0.159722
    22  H    0.208248
    23  H    0.181925
    24  H    0.178624
    25  H    0.165207
    26  H    0.182066
    27  H    0.262194
    28  H    0.149910
    29  H    0.212435
    30  H    0.160014
    31  H    0.225972
 Sum of Mulliken charges =  -0.00000

 Dipole moment (field-independent basis, Debye):
    X=              2.5823    Y=             -0.9384    Z=              4.8974  Tot=              5.6155
 Quadrupole moment (field-independent basis, Debye-Ang):
   XX=            -81.6799   YY=            -75.7020   ZZ=            -82.4013
   XY=              5.2346   XZ=              1.6198   YZ=              1.9377

  Exact polarizability: 185.735   4.126 173.806  -0.278   1.426 168.701
 Approx polarizability: 147.117   2.445 142.603   0.367   1.038 142.833

 ******    1 imaginary frequencies (negative Signs) ******

                      1                      2                      3
                      A                      A                      A
 Frequencies --    -33.3536                56.9336                71.9849
 Red. masses --      4.1210                 3.2083                 3.8856
 Frc consts  --      0.0027                 0.0061                 0.0119
 IR Inten    --      0.2946                 0.3001                 0.4317

                      4                      5                      6
                      A                      A                      A
 Frequencies --    149.3937               201.5734               244.3273
 Red. masses --      3.3624                 4.0883                 1.8272
 Frc consts  --      0.0442                 0.0979                 0.0643
 IR Inten    --      6.9060                 4.4567                 0.6355

                      7                      8                      9
                      A                      A                      A
 Frequencies --    248.3853               271.5274               332.3719
 Red. masses --      2.1304                 4.3054                 2.0808
 Frc consts  --      0.0774                 0.1870                 0.1354
 IR Inten    --      9.1956                 3.3371                 5.8809

                     10                     11                     12
                      A                      A                      A
 Frequencies --    360.1398               393.7681               439.5040
 Red. masses --      2.3907                 3.7952                 2.5872
 Frc consts  --      0.1827                 0.3467                 0.2944
 IR Inten    --      8.7957                 6.8016                 3.2725

                     13                     14                     15
                      A                      A                      A
 Frequencies --    449.3587               467.9196               496.2553
 Red. masses --      3.0827                 3.1963                 3.2339
 Frc consts  --      0.3668                 0.4123                 0.4692
 IR Inten    --      4.9653                 3.1992                 3.1670

                     16                     17                     18
                      A                      A                      A
 Frequencies --    511.2088               549.7705               587.1012
 Red. masses --      2.6410                 2.7049                 1.8473
 Frc consts  --      0.4066                 0.4817                 0.3752
 IR Inten    --      4.9323                 8.0198                12.2711

                     19                     20                     21
                      A                      A                      A
 Frequencies --    666.7794               831.0830               841.9664
 Red. masses --      2.6461                 1.4979                 1.6944
 Frc consts  --      0.6931                 0.6096                 0.7077
 IR Inten    --     26.2848                 2.5413                 2.4152

                     22                     23                     24
                      A                      A                      A
 Frequencies --    843.2011               860.9363               880.7892
 Red. masses --      2.8125                 1.8905                 1.9528
 Frc consts  --      1.1782                 0.8256                 0.8926
 IR Inten    --     16.0236                11.6515                14.8362

                     25                     26                     27
                      A                      A                      A
 Frequencies --    900.1749               935.4785               946.6644
 Red. masses --      2.4525                 1.8280                 2.2688
 Frc consts  --      1.1709                 0.9425                 1.1979
 IR Inten    --     33.3287                 9.1206                21.1625

                     28                     29                     30
                      A                      A                      A
 Frequencies --    961.7490               996.3579              1005.9180
 Red. masses --      2.0742                 1.6916                 1.4553
 Frc consts  --      1.1304                 0.9894                 0.8676
 IR Inten    --      1.3644                32.6749                22.3557

                     31                     32                     33
                      A                      A                      A
 Frequencies --   1018.5291              1035.9624              1064.5691
 Red. masses --      2.0818                 2.1390                 1.4900
 Frc consts  --      1.2724                 1.3526                 0.9949
 IR Inten    --     24.8248                38.6317                40.3568

                     34                     35                     36
                      A                      A                      A
 Frequencies --   1091.2349              1115.1318              1130.9695
 Red. masses --      2.8599                 3.2592                 3.2036
 Frc consts  --      2.0065                 2.3879                 2.4143
 IR Inten    --    127.0423                35.9276                56.9649

                     37                     38                     39
                      A                      A                      A
 Frequencies --   1156.3506              1164.2267              1170.3622
 Red. masses --      2.3891                 2.4575                 2.6686
 Frc consts  --      1.8822                 1.9625                 2.1537
 IR Inten    --     68.5042                77.2304                85.9435

                     40                     41                     42
                      A                      A                      A
 Frequencies --   1184.8984              1194.9164              1207.8348
 Red. masses --      1.9894                 1.5243                 1.5327
 Frc consts  --      1.6456                 1.2823                 1.3174
 IR Inten    --     78.1015                51.1672                54.0544

                     43                     44                     45
                      A                      A                      A
 Frequencies --   1241.5352              1254.7302              1271.7067
 Red. masses --      3.1784                 1.7912                 1.3097
 Frc consts  --      2.8865                 1.6615                 1.2480
 IR Inten    --    405.5533                53.1365                12.5271

                     46                     47                     48
                      A                      A                      A
 Frequencies --   1278.0103              1287.4203              1322.3528
 Red. masses --      1.2389                 1.2988                 1.3599
 Frc consts  --      1.1922                 1.2684                 1.4011
 IR Inten    --     17.9403                 1.5604                21.5675

                     49                     50                     51
                      A                      A                      A
 Frequencies --   1330.6734              1340.1319              1351.2402
 Red. masses --      1.3758                 1.3134                 1.3211
 Frc consts  --      1.4353                 1.3897                 1.4212
 IR Inten    --     44.2160                 7.1573                 0.8487

                     52                     53                     54
                      A                      A                      A
 Frequencies --   1364.1936              1366.3883              1386.1926
 Red. masses --      1.2120                 1.4355                 1.5086
 Frc consts  --      1.3289                 1.5791                 1.7079
 IR Inten    --     23.6782                 1.0343                 5.8108

                     55                     56                     57
                      A                      A                      A
 Frequencies --   1388.4784              1396.1662              1403.4407
 Red. masses --      1.3532                 1.2974                 1.4314
 Frc consts  --      1.5371                 1.4900                 1.6611
 IR Inten    --     13.6582                44.5320                28.0325

                     58                     59                     60
                      A                      A                      A
 Frequencies --   1414.5586              1429.0567              1432.6430
 Red. masses --      1.4835                 1.3825                 1.3912
 Frc consts  --      1.7490                 1.6635                 1.6824
 IR Inten    --     74.1104                25.2236                11.8166

                     61                     62                     63
                      A                      A                      A
 Frequencies --   1453.3062              1468.2722              1471.2929
 Red. masses --      1.3501                 1.1018                 1.1090
 Frc consts  --      1.6800                 1.3995                 1.4144
 IR Inten    --     34.2040                 4.9488                 3.0888

                     64                     65                     66
                      A                      A                      A
 Frequencies --   1474.5180              1482.7249              1489.9482
 Red. masses --      1.1469                 1.1339                 1.1327
 Frc consts  --      1.4692                 1.4687                 1.4815
 IR Inten    --     16.4646                 7.6371                33.7614

                     67                     68                     69
                      A                      A                      A
 Frequencies --   1499.8496              1506.3663              1508.0001
 Red. masses --      1.0831                 1.1048                 1.1015
 Frc consts  --      1.4356                 1.4770                 1.4758
 IR Inten    --      3.2893                 8.9704                 7.7980

                     70                     71                     72
                      A                      A                      A
 Frequencies --   3030.1900              3037.0536              3037.7139
 Red. masses --      1.0830                 1.0701                 1.0704
 Frc consts  --      5.8592                 5.8155                 5.8195
 IR Inten    --     34.2473                43.7342                72.1807

                     73                     74                     75
                      A                      A                      A
 Frequencies --   3038.7137              3043.3640              3060.5898
 Red. masses --      1.0700                 1.0837                 1.0685
 Frc consts  --      5.8213                 5.9139                 5.8969
 IR Inten    --     68.9564                76.1334                22.8270

                     76                     77                     78
                      A                      A                      A
 Frequencies --   3068.0074              3069.4745              3071.4515
 Red. masses --      1.0610                 1.0611                 1.0607
 Frc consts  --      5.8842                 5.8900                 5.8956
 IR Inten    --     26.0023                59.3963                16.8948

                     79                     80                     81
                      A                      A                      A
 Frequencies --   3074.6902              3118.0416              3119.6121
 Red. masses --      1.0614                 1.0971                 1.1022
 Frc consts  --      5.9122                 6.2843                 6.3197
 IR Inten    --     51.5270                39.8025                39.3028

                     82                     83                     84
                      A                      A                      A
 Frequencies --   3122.9908              3124.5417              3127.5025
 Red. masses --      1.1042                 1.1034                 1.1034
 Frc consts  --      6.3449                 6.3465                 6.3586
 IR Inten    --     64.7909                51.8773                48.1276

                     85                     86                     87
                      A                      A                      A
 Frequencies --   3142.2034              3142.6028              3144.3249
 Red. masses --      1.0963                 1.0955                 1.0961
 Frc consts  --      6.3775                 6.3742                 6.3847
 IR Inten    --     40.6532                40.2185                33.8498

 - Thermochemistry -
 -------------------
 Temperature   298.150 Kelvin.  Pressure   1.00000 Atm.
 Atom     1 has atomic number  6 and mass  12.00000

 Molecular mass:   186.12559 amu.
 Principal axes and moments of inertia in atomic units:
                           1         2         3
     Eigenvalues --   832.787315103.219675426.93443
           X            0.99999   0.00199   0.00346
           Y           -0.00204   0.99987   0.01583
           Z           -0.00343  -0.01584   0.99987
 This molecule is an asymmetric top.
 Rotational symmetry number  1.
 Warning -- assumption of classical behavior for rotation
           may cause significant error
 Rotational temperatures (Kelvin)      0.10400     0.01697     0.01596
 Rotational constants (GHZ):           2.16711     0.35365     0.33255
    1 imaginary frequencies ignored.
 Zero-point vibrational energy     737042.4 (Joules/Mol)
                                  176.15737 (Kcal/Mol)
 Warning -- explicit consideration of  17 degrees of freedom as
           vibrations may cause significant error
 Vibrational temperatures:     81.91   103.57   214.94   290.02   351.53
          (Kelvin)            357.37   390.67   478.21   518.16   566.54
                              632.35   646.53   673.23   714.00   735.52
                              791.00   844.71   959.35  1195.74  1211.40
                             1213.18  1238.70  1267.26  1295.15  1345.94
                             1362.04  1383.74  1433.54  1447.29  1465.44
                             1490.52  1531.68  1570.04  1604.43  1627.21
                             1663.73  1675.06  1683.89  1704.80  1719.22
                             1737.80  1786.29  1805.28  1829.70  1838.77
                             1852.31  1902.57  1914.54  1928.15  1944.13
                             1962.77  1965.93  1994.42  1997.71  2008.77
                             2019.24  2035.23  2056.09  2061.25  2090.98
                             2112.52  2116.86  2121.50  2133.31  2143.70
                             2157.95  2167.33  2169.68  4359.77  4369.64
                             4370.59  4372.03  4378.72  4403.51  4414.18
                             4416.29  4419.13  4423.79  4486.17  4488.43
                             4493.29  4495.52  4499.78  4520.93  4521.50
                             4523.98

 Zero-point correction=                           0.280725 (Hartree/Particle)
 Thermal correction to Energy=                    0.291650
 Thermal correction to Enthalpy=                  0.292595
 Thermal correction to Gibbs Free Energy=         0.243768
 Sum of electronic and zero-point Energies=           -617.226364
 Sum of electronic and thermal Energies=              -617.215438
 Sum of electronic and thermal Enthalpies=            -617.214494
 Sum of electronic and thermal Free Energies=         -617.263320

                     E (Thermal)             CV                S
                      KCal/Mol        Cal/Mol-Kelvin    Cal/Mol-Kelvin
 Total                  183.013             44.779            102.764
 Electronic               0.000              0.000              0.000
 Translational            0.889              2.981             41.570
 Rotational               0.889              2.981             31.512
 Vibrational            181.236             38.817             29.683
 Vibration     1          0.596              1.975              4.561
 Vibration     2          0.598              1.967              4.098
 Vibration     3          0.618              1.903              2.680
 Vibration     4          0.638              1.838              2.119
 Vibration     5          0.660              1.772              1.771
 Vibration     6          0.662              1.765              1.742
 Vibration     7          0.675              1.726              1.586
 Vibration     8          0.714              1.611              1.249
 Vibration     9          0.735              1.554              1.121
 Vibration    10          0.761              1.483              0.986
 Vibration    11          0.800              1.384              0.828
 Vibration    12          0.808              1.362              0.798
 Vibration    13          0.825              1.321              0.743
 Vibration    14          0.852              1.258              0.668
 Vibration    15          0.866              1.225              0.631
 Vibration    16          0.905              1.140              0.545
 Vibration    17          0.944              1.059              0.472

 Optimization completed.
    -- Stationary point found.
 Normal termination of Gaussian 16 at Sat Mar  9 11:27:39 2019.
