 Gaussian 16, Revision B.01,
 Gaussian 16:  ES64L-G16RevB.01 20-Dec-2017

 ----------------------------------------------------------------------
 #M062X/6-311++G(2d,2p) opt=ModRedundant freq=noraman SCRF=(SMD,solvent
 =water)
 ----------------------------------------------------------------------

 -------------------------------
 4c1_b1_e3_4c1_PHI.inp_extract_5
 -------------------------------
 Symbolic Z-matrix:
 Charge =  0 Multiplicity = 1

 SCF Done:  E(RM062X) =  -617.500202994     A.U. after   12 cycles
 SCF Done:  E(RM062X) =  -617.501758442     A.U. after   10 cycles
 SCF Done:  E(RM062X) =  -617.501867827     A.U. after   10 cycles
 SCF Done:  E(RM062X) =  -617.501943841     A.U. after    9 cycles
 SCF Done:  E(RM062X) =  -617.501945585     A.U. after    7 cycles
 Optimization completed.
    -- Stationary point found.
 Normal termination of Gaussian 16 at Sat Mar  9 06:16:15 2019.

 ----------------------------------------------------------------------
 #N Geom=AllCheck Guess=TCheck SCRF=Check GenChk RM062X/6-311++G(2d,2p)
  Freq
 ----------------------------------------------------------------------

 Structure from the checkpoint file:  "4c1_b1_e3_4c1_PHI.inp_extract_5.chk"
 -------------------------------
 4c1_b1_e3_4c1_PHI.inp_extract_5
 -------------------------------
 Charge =  0 Multiplicity = 1

                         Standard orientation:
 ---------------------------------------------------------------------
 Center     Atomic      Atomic             Coordinates (Angstroms)
 Number     Number       Type             X           Y           Z
 ---------------------------------------------------------------------
      1          6           0        1.610559    0.820168   -0.799876
      2          6           0        3.442019   -0.668308    0.803508
      3          6           0       -2.362473   -1.331714   -0.172697
      4          6           0        1.090302   -0.303840    0.087519
      5          6           0        2.182789   -1.341462    0.279531
      6          8           0       -1.290509    0.773302    0.342430
      7          6           0       -3.727682   -0.646361   -0.209800
      8          8           0        3.886883    0.360190   -0.074991
      9          6           0       -3.697867    0.609388    0.658636
     10          6           0       -1.281767   -0.334571   -0.533731
     11          6           0       -2.526559    1.487875    0.257161
     12          6           0        2.900980    1.377706   -0.218956
     13          8           0       -0.023602   -0.977416   -0.500629
     14          1           0        1.805303    0.419320   -1.797575
     15          1           0        0.874923    1.619556   -0.888178
     16          1           0        4.259135   -1.381307    0.885968
     17          1           0        3.256203   -0.236928    1.793620
     18          1           0       -2.147417   -1.706717    0.830844
     19          1           0       -2.316578   -2.168867   -0.869230
     20          1           0        0.809158    0.097501    1.061964
     21          1           0        1.858988   -2.109343    0.982750
     22          1           0        2.397768   -1.819985   -0.678589
     23          1           0       -4.504900   -1.332296    0.124229
     24          1           0       -3.962575   -0.366559   -1.240141
     25          1           0       -3.588940    0.332975    1.709780
     26          1           0       -4.621436    1.179955    0.557488
     27          1           0       -1.447715    0.048968   -1.551144
     28          1           0       -2.656189    1.849179   -0.769074
     29          1           0       -2.419988    2.346290    0.916187
     30          1           0        2.710448    1.831562    0.760382
     31          1           0        3.329827    2.134814   -0.871533
 ---------------------------------------------------------------------

 SCF Done:  E(RM062X) =  -617.501945585     A.U. after    1 cycles

 The electronic state is 1-A.
 Alpha  occ. eigenvalues --  -19.63258 -19.62938 -19.62854 -10.63329 -10.58280
 Alpha  occ. eigenvalues --  -10.57672 -10.57578 -10.57537 -10.52520 -10.52414
 Alpha  occ. eigenvalues --  -10.52323 -10.52291 -10.52164  -1.19711  -1.16103
 Alpha  occ. eigenvalues --   -1.13454  -0.90781  -0.89324  -0.86006  -0.84551
 Alpha  occ. eigenvalues --   -0.75206  -0.73112  -0.71920  -0.69419  -0.65743
 Alpha  occ. eigenvalues --   -0.64250  -0.60023  -0.57707  -0.55824  -0.54648
 Alpha  occ. eigenvalues --   -0.54281  -0.52422  -0.52059  -0.50917  -0.49791
 Alpha  occ. eigenvalues --   -0.48968  -0.46497  -0.45686  -0.44639  -0.44096
 Alpha  occ. eigenvalues --   -0.43055  -0.41316  -0.40744  -0.39831  -0.39132
 Alpha  occ. eigenvalues --   -0.38383  -0.37279  -0.36706  -0.34643  -0.33291
 Alpha  occ. eigenvalues --   -0.31082
 Alpha virt. eigenvalues --    0.00468   0.01276   0.01345   0.01469   0.02722
 Alpha virt. eigenvalues --    0.02861   0.02990   0.03937   0.03980   0.04790
 Alpha virt. eigenvalues --    0.05205   0.05475   0.05792   0.05910   0.07187

 Mulliken charges:
               1
     1  C   -0.072268
     2  C   -0.303982
     3  C   -0.119595
     4  C   -0.286190
     5  C   -0.199355
     6  O   -0.351298
     7  C   -0.459882
     8  O   -0.369836
     9  C   -0.278688
    10  C   -0.133859
    11  C   -0.194068
    12  C   -0.359044
    13  O   -0.379412
    14  H    0.208354
    15  H    0.182534
    16  H    0.227416
    17  H    0.161915
    18  H    0.180492
    19  H    0.185461
    20  H    0.280576
    21  H    0.176122
    22  H    0.196162
    23  H    0.194342
    24  H    0.179788
    25  H    0.160167
    26  H    0.179752
    27  H    0.247192
    28  H    0.168623
    29  H    0.195384
    30  H    0.172022
    31  H    0.211175
 Sum of Mulliken charges =  -0.00000

 Dipole moment (field-independent basis, Debye):
    X=             -4.1830    Y=              1.2826    Z=              0.7670  Tot=              4.4420
 Quadrupole moment (field-independent basis, Debye-Ang):
   XX=            -81.4026   YY=            -77.1151   ZZ=            -78.4175
   XY=             -3.4552   XZ=              4.7531   YZ=             -2.4942

  Exact polarizability: 183.241  -3.101 176.389   2.175  -0.355 168.278
 Approx polarizability: 145.910  -2.530 144.478   1.189   0.374 141.932

 ******    1 imaginary frequencies (negative Signs) ******

                      1                      2                      3
                      A                      A                      A
 Frequencies --    -60.3432                65.5655                83.4017
 Red. masses --      4.2648                 3.0983                 4.3730
 Frc consts  --      0.0091                 0.0078                 0.0179
 IR Inten    --      6.3523                 0.5574                 0.6276

                      4                      5                      6
                      A                      A                      A
 Frequencies --    157.5390               192.2921               244.1955
 Red. masses --      3.2141                 3.8291                 2.1750
 Frc consts  --      0.0470                 0.0834                 0.0764
 IR Inten    --      1.3627                14.0060                 6.5283

                      7                      8                      9
                      A                      A                      A
 Frequencies --    252.0998               267.1431               296.0416
 Red. masses --      2.1412                 3.3296                 3.8647
 Frc consts  --      0.0802                 0.1400                 0.1996
 IR Inten    --      1.3150                 5.0325                 5.2656

                     10                     11                     12
                      A                      A                      A
 Frequencies --    358.9278               372.2581               441.3747
 Red. masses --      1.9357                 2.2717                 3.1209
 Frc consts  --      0.1469                 0.1855                 0.3582
 IR Inten    --      1.1067                11.5533                 3.9647

                     13                     14                     15
                      A                      A                      A
 Frequencies --    455.1818               480.6453               484.1345
 Red. masses --      2.8420                 3.1879                 2.3583
 Frc consts  --      0.3469                 0.4339                 0.3257
 IR Inten    --      0.1930                 0.3756                 1.7158

                     16                     17                     18
                      A                      A                      A
 Frequencies --    514.1767               551.3540               620.1045
 Red. masses --      3.6078                 1.9351                 2.4866
 Frc consts  --      0.5620                 0.3466                 0.5634
 IR Inten    --      7.8981                16.5603                10.4890

                     19                     20                     21
                      A                      A                      A
 Frequencies --    657.2913               831.1682               839.6625
 Red. masses --      2.9691                 1.5022                 1.8872
 Frc consts  --      0.7558                 0.6115                 0.7839
 IR Inten    --     29.5915                 3.0934                 3.0688

                     22                     23                     24
                      A                      A                      A
 Frequencies --    844.7343               856.6191               881.6063
 Red. masses --      2.7202                 1.6928                 2.1304
 Frc consts  --      1.1436                 0.7319                 0.9756
 IR Inten    --     19.4497                19.7380                 2.9357

                     25                     26                     27
                      A                      A                      A
 Frequencies --    897.2931               934.8948               948.1955
 Red. masses --      2.4544                 1.8596                 2.1216
 Frc consts  --      1.1643                 0.9576                 1.1238
 IR Inten    --     25.6917                 1.9007                16.8419

                     28                     29                     30
                      A                      A                      A
 Frequencies --    959.1583               983.1304              1004.2146
 Red. masses --      2.0210                 1.9777                 1.4445
 Frc consts  --      1.0954                 1.1263                 0.8582
 IR Inten    --      9.6641                21.5453                18.9428

                     31                     32                     33
                      A                      A                      A
 Frequencies --   1013.3007              1033.7016              1063.0326
 Red. masses --      1.9860                 2.0789                 1.4715
 Frc consts  --      1.2014                 1.3088                 0.9797
 IR Inten    --     33.8409                37.8210                40.1249

                     34                     35                     36
                      A                      A                      A
 Frequencies --   1077.0262              1106.1469              1129.7246
 Red. masses --      2.8106                 3.1755                 3.0929
 Frc consts  --      1.9209                 2.2892                 2.3257
 IR Inten    --     16.4349               142.2048                74.5300

                     37                     38                     39
                      A                      A                      A
 Frequencies --   1154.7752              1161.2776              1165.1420
 Red. masses --      2.5210                 2.3625                 2.4656
 Frc consts  --      1.9807                 1.8771                 1.9721
 IR Inten    --     49.8284                58.7895                40.2361

                     40                     41                     42
                      A                      A                      A
 Frequencies --   1186.5674              1196.0301              1199.0674
 Red. masses --      1.6837                 1.8190                 1.4445
 Frc consts  --      1.3967                 1.5331                 1.2237
 IR Inten    --     44.6951                85.3239                 8.2305

                     43                     44                     45
                      A                      A                      A
 Frequencies --   1244.7514              1252.7452              1271.2848
 Red. masses --      3.3337                 2.0280                 1.3577
 Frc consts  --      3.0433                 1.8752                 1.2929
 IR Inten    --    345.8692               241.4387                17.4662

                     46                     47                     48
                      A                      A                      A
 Frequencies --   1277.5586              1280.8126              1318.3610
 Red. masses --      1.2531                 1.3102                 1.3686
 Frc consts  --      1.2050                 1.2663                 1.4015
 IR Inten    --      2.8837                42.6645                17.1836

                     49                     50                     51
                      A                      A                      A
 Frequencies --   1322.9599              1337.7807              1346.2400
 Red. masses --      1.3059                 1.3036                 1.2991
 Frc consts  --      1.3467                 1.3746                 1.3872
 IR Inten    --     56.3281                 7.9456                 1.2292

                     52                     53                     54
                      A                      A                      A
 Frequencies --   1358.1680              1367.0942              1385.4520
 Red. masses --      1.1543                 1.4413                 1.5159
 Frc consts  --      1.2546                 1.5871                 1.7144
 IR Inten    --      9.4579                 2.2993                 6.6024

                     55                     56                     57
                      A                      A                      A
 Frequencies --   1388.0570              1398.4628              1401.8202
 Red. masses --      1.3763                 1.4321                 1.4559
 Frc consts  --      1.5624                 1.6501                 1.6857
 IR Inten    --      6.4248                90.6586                11.8704

                     58                     59                     60
                      A                      A                      A
 Frequencies --   1409.4179              1429.8928              1435.0861
 Red. masses --      1.3293                 1.3411                 1.4346
 Frc consts  --      1.5558                 1.6155                 1.7407
 IR Inten    --      9.2740                 5.8403                28.4367

                     61                     62                     63
                      A                      A                      A
 Frequencies --   1439.3001              1468.6186              1469.6323
 Red. masses --      1.4233                 1.0995                 1.1165
 Frc consts  --      1.7371                 1.3972                 1.4207
 IR Inten    --     44.3783                 5.0135                 2.5293

                     64                     65                     66
                      A                      A                      A
 Frequencies --   1472.6863              1481.4260              1489.6823
 Red. masses --      1.0934                 1.1209                 1.1238
 Frc consts  --      1.3972                 1.4493                 1.4693
 IR Inten    --      9.5326                 7.6479                26.2799

                     67                     68                     69
                      A                      A                      A
 Frequencies --   1498.7836              1506.4379              1507.8604
 Red. masses --      1.0836                 1.1037                 1.1009
 Frc consts  --      1.4341                 1.4757                 1.4747
 IR Inten    --      3.4043                 9.2840                 8.8607

                     70                     71                     72
                      A                      A                      A
 Frequencies --   2994.7870              3034.4161              3036.8547
 Red. masses --      1.0827                 1.0702                 1.0703
 Frc consts  --      5.7212                 5.8058                 5.8157
 IR Inten    --    109.8058                52.5520                89.0022

                     73                     74                     75
                      A                      A                      A
 Frequencies --   3040.3273              3061.5224              3068.9722
 Red. masses --      1.0699                 1.0686                 1.0636
 Frc consts  --      5.8270                 5.9013                 5.9021
 IR Inten    --     70.9667                20.7333                23.7136

                     76                     77                     78
                      A                      A                      A
 Frequencies --   3069.0956              3070.6306              3071.8610
 Red. masses --      1.0622                 1.0612                 1.0624
 Frc consts  --      5.8952                 5.8950                 5.9068
 IR Inten    --     19.9789                64.9899                25.6898

                     79                     80                     81
                      A                      A                      A
 Frequencies --   3092.9248              3119.2456              3122.5560
 Red. masses --      1.0819                 1.0977                 1.1007
 Frc consts  --      6.0976                 6.2926                 6.3232
 IR Inten    --     45.1681                39.9401                53.6657

                     82                     83                     84
                      A                      A                      A
 Frequencies --   3126.0535              3127.7192              3130.4514
 Red. masses --      1.1027                 1.1037                 1.1011
 Frc consts  --      6.3487                 6.3616                 6.3575
 IR Inten    --     51.7292                51.7988                45.3014

                     85                     86                     87
                      A                      A                      A
 Frequencies --   3140.8516              3143.1763              3143.2725
 Red. masses --      1.0952                 1.0960                 1.0963
 Frc consts  --      6.3657                 6.3796                 6.3818
 IR Inten    --     40.3275                47.7086                25.5117

 - Thermochemistry -
 -------------------
 Temperature   298.150 Kelvin.  Pressure   1.00000 Atm.
 Atom     1 has atomic number  6 and mass  12.00000

 Molecular mass:   186.12559 amu.
 Principal axes and moments of inertia in atomic units:
                           1         2         3
     Eigenvalues --   859.383974716.879795180.55932
           X            0.99999  -0.00159   0.00307
           Y            0.00165   0.99983  -0.01839
           Z           -0.00304   0.01840   0.99983
 This molecule is an asymmetric top.
 Rotational symmetry number  1.
 Warning -- assumption of classical behavior for rotation
           may cause significant error
 Rotational temperatures (Kelvin)      0.10079     0.01836     0.01672
 Rotational constants (GHZ):           2.10004     0.38261     0.34837
    1 imaginary frequencies ignored.
 Zero-point vibrational energy     736392.9 (Joules/Mol)
                                  176.00214 (Kcal/Mol)
 Warning -- explicit consideration of  17 degrees of freedom as
           vibrations may cause significant error
 Vibrational temperatures:     94.33   120.00   226.66   276.67   351.34
          (Kelvin)            362.72   384.36   425.94   516.42   535.60
                              635.04   654.91   691.54   696.56   739.79
                              793.28   892.19   945.70  1195.87  1208.09
                             1215.38  1232.48  1268.43  1291.00  1345.11
                             1364.24  1380.01  1414.51  1444.84  1457.91
                             1487.27  1529.47  1549.60  1591.50  1625.42
                             1661.46  1670.82  1676.38  1707.21  1720.82
                             1725.19  1790.92  1802.42  1829.10  1838.12
                             1842.80  1896.83  1903.44  1924.77  1936.94
                             1954.10  1966.94  1993.36  1997.10  2012.08
                             2016.91  2027.84  2057.30  2064.77  2070.83
                             2113.01  2114.47  2118.87  2131.44  2143.32
                             2156.42  2167.43  2169.47  4308.83  4365.85
                             4369.36  4374.35  4404.85  4415.57  4415.74
                             4417.95  4419.72  4450.03  4487.90  4492.66
                             4497.69  4500.09  4504.02  4518.98  4522.33
                             4522.47

 Zero-point correction=                           0.280477 (Hartree/Particle)
 Thermal correction to Energy=                    0.291417
 Thermal correction to Enthalpy=                  0.292362
 Thermal correction to Gibbs Free Energy=         0.243746
 Sum of electronic and zero-point Energies=           -617.221468
 Sum of electronic and thermal Energies=              -617.210528
 Sum of electronic and thermal Enthalpies=            -617.209584
 Sum of electronic and thermal Free Energies=         -617.258200

                     E (Thermal)             CV                S
                      KCal/Mol        Cal/Mol-Kelvin    Cal/Mol-Kelvin
 Total                  182.867             44.903            102.321
 Electronic               0.000              0.000              0.000
 Translational            0.889              2.981             41.570
 Rotational               0.889              2.981             31.419
 Vibrational            181.090             38.942             29.332
 Vibration     1          0.597              1.971              4.282
 Vibration     2          0.600              1.961              3.809
 Vibration     3          0.621              1.894              2.579
 Vibration     4          0.634              1.851              2.206
 Vibration     5          0.660              1.772              1.772
 Vibration     6          0.664              1.759              1.716
 Vibration     7          0.672              1.733              1.615
 Vibration     8          0.690              1.681              1.439
 Vibration     9          0.734              1.557              1.127
 Vibration    10          0.744              1.529              1.070
 Vibration    11          0.801              1.380              0.822
 Vibration    12          0.814              1.349              0.780
 Vibration    13          0.837              1.293              0.708
 Vibration    14          0.840              1.285              0.699
 Vibration    15          0.869              1.219              0.624
 Vibration    16          0.907              1.137              0.541
 Vibration    17          0.980              0.989              0.416

 Optimization completed.
    -- Stationary point found.
 Normal termination of Gaussian 16 at Sat Mar  9 07:19:42 2019.
