 Gaussian 16, Revision B.01,
 Gaussian 16:  ES64L-G16RevB.01 20-Dec-2017

 ----------------------------------------------------------------------
 #M062X/6-311++G(2d,2p) opt=ModRedundant freq=noraman SCRF=(SMD,solvent
 =water)
 ----------------------------------------------------------------------

 -------------------------------
 4c1_b1_e3_4c1_PHI.inp_extract_4
 -------------------------------
 Symbolic Z-matrix:
 Charge =  0 Multiplicity = 1

 SCF Done:  E(RM062X) =  -617.503400112     A.U. after   12 cycles
 SCF Done:  E(RM062X) =  -617.505043024     A.U. after   10 cycles
 SCF Done:  E(RM062X) =  -617.505165439     A.U. after    9 cycles
 SCF Done:  E(RM062X) =  -617.505220367     A.U. after    9 cycles
 SCF Done:  E(RM062X) =  -617.505222336     A.U. after    7 cycles
 Optimization completed.
    -- Stationary point found.
 Normal termination of Gaussian 16 at Sat Mar  9 05:56:10 2019.

 ----------------------------------------------------------------------
 #N Geom=AllCheck Guess=TCheck SCRF=Check GenChk RM062X/6-311++G(2d,2p)
  Freq
 ----------------------------------------------------------------------

 Structure from the checkpoint file:  "4c1_b1_e3_4c1_PHI.inp_extract_4.chk"
 -------------------------------
 4c1_b1_e3_4c1_PHI.inp_extract_4
 -------------------------------
 Charge =  0 Multiplicity = 1

                         Standard orientation:
 ---------------------------------------------------------------------
 Center     Atomic      Atomic             Coordinates (Angstroms)
 Number     Number       Type             X           Y           Z
 ---------------------------------------------------------------------
      1          6           0        1.541257    0.764446   -0.811277
      2          6           0        3.505765   -0.590972    0.755988
      3          6           0       -2.390974   -1.322679   -0.261841
      4          6           0        1.108035   -0.317760    0.169617
      5          6           0        2.234489   -1.319621    0.349153
      6          8           0       -1.304357    0.696983    0.513468
      7          6           0       -3.718292   -0.576076   -0.389026
      8          8           0        3.869393    0.395776   -0.204192
      9          6           0       -3.735718    0.615117    0.566452
     10          6           0       -1.244698   -0.350711   -0.434139
     11          6           0       -2.497837    1.468274    0.353384
     12          6           0        2.850825    1.381056   -0.343441
     13          8           0       -0.027669   -1.047623   -0.300195
     14          1           0        1.682262    0.314165   -1.796896
     15          1           0        0.783966    1.544665   -0.894445
     16          1           0        4.344283   -1.279980    0.826023
     17          1           0        3.369898   -0.108400    1.730429
     18          1           0       -2.298715   -1.775921    0.727844
     19          1           0       -2.302555   -2.109987   -1.010358
     20          1           0        0.878685    0.135569    1.135138
     21          1           0        1.973437   -2.053519    1.112309
     22          1           0        2.402294   -1.846240   -0.592962
     23          1           0       -4.550670   -1.248726   -0.187173
     24          1           0       -3.832736   -0.216678   -1.415019
     25          1           0       -3.749162    0.263171    1.600414
     26          1           0       -4.622544    1.230192    0.411590
     27          1           0       -1.286004    0.110691   -1.432574
     28          1           0       -2.504777    1.903981   -0.652131
     29          1           0       -2.431662    2.274854    1.079774
     30          1           0        2.708074    1.885971    0.618817
     31          1           0        3.219882    2.108645   -1.062659
 ---------------------------------------------------------------------

 SCF Done:  E(RM062X) =  -617.505222336     A.U. after    1 cycles

 The electronic state is 1-A.
 Alpha  occ. eigenvalues --  -19.63207 -19.63181 -19.62869 -10.63289 -10.58268
 Alpha  occ. eigenvalues --  -10.57651 -10.57594 -10.57579 -10.52546 -10.52447
 Alpha  occ. eigenvalues --  -10.52409 -10.52293 -10.52274  -1.19850  -1.16118
 Alpha  occ. eigenvalues --   -1.13543  -0.90824  -0.89334  -0.86061  -0.84574
 Alpha  occ. eigenvalues --   -0.75193  -0.73167  -0.71923  -0.69471  -0.65636
 Alpha  occ. eigenvalues --   -0.64401  -0.59990  -0.57686  -0.56187  -0.54472
 Alpha  occ. eigenvalues --   -0.54304  -0.52482  -0.52130  -0.50923  -0.49825
 Alpha  occ. eigenvalues --   -0.49218  -0.46415  -0.45718  -0.44477  -0.44089
 Alpha  occ. eigenvalues --   -0.43185  -0.41292  -0.40784  -0.39884  -0.39140
 Alpha  occ. eigenvalues --   -0.38368  -0.37270  -0.36814  -0.34491  -0.33334
 Alpha  occ. eigenvalues --   -0.31548
 Alpha virt. eigenvalues --    0.00483   0.01292   0.01337   0.01475   0.02724
 Alpha virt. eigenvalues --    0.02871   0.02986   0.03958   0.04027   0.04816
 Alpha virt. eigenvalues --    0.05157   0.05501   0.05828   0.05925   0.07159

 Mulliken charges:
               1
     1  C   -0.031612
     2  C   -0.298606
     3  C   -0.209579
     4  C   -0.329297
     5  C   -0.208091
     6  O   -0.360765
     7  C   -0.456089
     8  O   -0.370140
     9  C   -0.306166
    10  C   -0.047742
    11  C   -0.173336
    12  C   -0.362794
    13  O   -0.385324
    14  H    0.213832
    15  H    0.185499
    16  H    0.228684
    17  H    0.160847
    18  H    0.188247
    19  H    0.185461
    20  H    0.283387
    21  H    0.179928
    22  H    0.195796
    23  H    0.201072
    24  H    0.176246
    25  H    0.162407
    26  H    0.179285
    27  H    0.251822
    28  H    0.164704
    29  H    0.196113
    30  H    0.175084
    31  H    0.211126
 Sum of Mulliken charges =  -0.00000

 Dipole moment (field-independent basis, Debye):
    X=             -3.9023    Y=              1.5544    Z=              0.2934  Tot=              4.2107
 Quadrupole moment (field-independent basis, Debye-Ang):
   XX=            -80.9179   YY=            -77.4641   ZZ=            -78.5273
   XY=             -3.6818   XZ=              5.7470   YZ=             -2.0213

  Exact polarizability: 183.315  -3.109 176.294   2.267  -0.698 168.600
 Approx polarizability: 145.742  -2.587 144.626   1.081  -0.004 142.166

                      1                      2                      3
                      A                      A                      A
 Frequencies --     16.5439                58.8973                84.3935
 Red. masses --      4.2248                 3.1082                 4.1397
 Frc consts  --      0.0007                 0.0064                 0.0174
 IR Inten    --      4.4589                 0.5812                 0.8708

                      4                      5                      6
                      A                      A                      A
 Frequencies --    159.6715               189.8995               245.3265
 Red. masses --      3.1978                 3.8712                 1.9880
 Frc consts  --      0.0480                 0.0823                 0.0705
 IR Inten    --      1.1829                15.7914                 6.5951

                      7                      8                      9
                      A                      A                      A
 Frequencies --    248.8889               271.2838               302.5491
 Red. masses --      2.3712                 3.3439                 3.5203
 Frc consts  --      0.0865                 0.1450                 0.1899
 IR Inten    --      2.6370                 4.2746                 5.1342

                     10                     11                     12
                      A                      A                      A
 Frequencies --    360.7113               376.6149               442.6330
 Red. masses --      2.0012                 2.2409                 3.2413
 Frc consts  --      0.1534                 0.1873                 0.3742
 IR Inten    --      3.0480                 8.1336                 3.8122

                     13                     14                     15
                      A                      A                      A
 Frequencies --    456.2538               481.4339               485.9655
 Red. masses --      2.8743                 3.1132                 2.3454
 Frc consts  --      0.3525                 0.4251                 0.3263
 IR Inten    --      0.3621                 0.3858                 0.7322

                     16                     17                     18
                      A                      A                      A
 Frequencies --    520.9319               548.5807               620.1110
 Red. masses --      3.5224                 1.9880                 2.5781
 Frc consts  --      0.5632                 0.3525                 0.5841
 IR Inten    --      6.2856                15.8922                 8.4393

                     19                     20                     21
                      A                      A                      A
 Frequencies --    658.0015               831.2808               837.9220
 Red. masses --      2.8624                 1.4963                 1.8013
 Frc consts  --      0.7302                 0.6092                 0.7452
 IR Inten    --     35.5288                 2.4996                 2.9532

                     22                     23                     24
                      A                      A                      A
 Frequencies --    844.0735               859.0363               882.5494
 Red. masses --      2.7114                 1.8511                 2.0194
 Frc consts  --      1.1382                 0.8048                 0.9267
 IR Inten    --     20.2283                15.9681                 7.4185

                     25                     26                     27
                      A                      A                      A
 Frequencies --    897.0476               937.1834               946.3533
 Red. masses --      2.4574                 1.8673                 2.1168
 Frc consts  --      1.1651                 0.9663                 1.1170
 IR Inten    --     27.1835                 3.0024                18.7718

                     28                     29                     30
                      A                      A                      A
 Frequencies --    958.9019               987.4359              1005.4826
 Red. masses --      2.0556                 1.8762                 1.4558
 Frc consts  --      1.1136                 1.0778                 0.8672
 IR Inten    --     12.2761                22.7659                20.7685

                     31                     32                     33
                      A                      A                      A
 Frequencies --   1013.0237              1034.6029              1063.2052
 Red. masses --      2.0124                 2.0987                 1.4833
 Frc consts  --      1.2167                 1.3235                 0.9879
 IR Inten    --     30.7845                35.5446                41.5883

                     34                     35                     36
                      A                      A                      A
 Frequencies --   1083.8525              1106.8951              1129.9238
 Red. masses --      2.8987                 3.2252                 3.1754
 Frc consts  --      2.0063                 2.3282                 2.3886
 IR Inten    --     21.6377               148.2580                91.9287

                     37                     38                     39
                      A                      A                      A
 Frequencies --   1155.2446              1159.1973              1166.2694
 Red. masses --      2.6002                 2.3775                 2.5333
 Frc consts  --      2.0446                 1.8823                 2.0302
 IR Inten    --     55.5638                64.2349                35.9626

                     40                     41                     42
                      A                      A                      A
 Frequencies --   1187.6808              1195.7930              1201.5079
 Red. masses --      1.6876                 1.6019                 1.5536
 Frc consts  --      1.4026                 1.3496                 1.3214
 IR Inten    --     46.4899                58.9164                18.6509

                     43                     44                     45
                      A                      A                      A
 Frequencies --   1249.3758              1258.9515              1274.4147
 Red. masses --      1.9848                 2.2074                 1.4780
 Frc consts  --      1.8254                 2.0613                 1.4144
 IR Inten    --    103.6926               343.1004                33.6455

                     46                     47                     48
                      A                      A                      A
 Frequencies --   1278.8484              1282.5035              1319.8848
 Red. masses --      1.2589                 1.4370                 1.3073
 Frc consts  --      1.2131                 1.3926                 1.3419
 IR Inten    --      2.4904                99.4653                39.1438

                     49                     50                     51
                      A                      A                      A
 Frequencies --   1321.5606              1339.8433              1345.6668
 Red. masses --      1.3314                 1.3184                 1.2827
 Frc consts  --      1.3700                 1.3945                 1.3685
 IR Inten    --     31.6773                10.7545                 2.2734

                     52                     53                     54
                      A                      A                      A
 Frequencies --   1360.3658              1367.8453              1385.3492
 Red. masses --      1.1663                 1.4450                 1.5040
 Frc consts  --      1.2717                 1.5929                 1.7007
 IR Inten    --      5.6929                 3.3261                 5.4371

                     55                     56                     57
                      A                      A                      A
 Frequencies --   1389.2531              1400.5372              1403.8259
 Red. masses --      1.3299                 1.4313                 1.4699
 Frc consts  --      1.5123                 1.6542                 1.7067
 IR Inten    --      2.7580               107.9600                 7.3702

                     58                     59                     60
                      A                      A                      A
 Frequencies --   1410.0596              1429.0081              1434.5925
 Red. masses --      1.3456                 1.3396                 1.3186
 Frc consts  --      1.5764                 1.6117                 1.5989
 IR Inten    --     12.7951                 5.4939                29.0258

                     61                     62                     63
                      A                      A                      A
 Frequencies --   1439.8538              1467.4888              1468.1558
 Red. masses --      1.6265                 1.1002                 1.1149
 Frc consts  --      1.9867                 1.3959                 1.4159
 IR Inten    --     43.4950                 5.1364                 3.4652

                     64                     65                     66
                      A                      A                      A
 Frequencies --   1472.5467              1481.0990              1491.1762
 Red. masses --      1.1096                 1.1247                 1.1270
 Frc consts  --      1.4176                 1.4536                 1.4765
 IR Inten    --     10.2315                 7.1653                26.9754

                     67                     68                     69
                      A                      A                      A
 Frequencies --   1499.6090              1506.2837              1508.7214
 Red. masses --      1.0834                 1.1022                 1.1010
 Frc consts  --      1.4355                 1.4734                 1.4766
 IR Inten    --      3.1774                 9.0292                 8.5933

                     70                     71                     72
                      A                      A                      A
 Frequencies --   2987.6413              3034.3150              3037.2535
 Red. masses --      1.0820                 1.0703                 1.0702
 Frc consts  --      5.6904                 5.8058                 5.8169
 IR Inten    --    106.9741                57.1683                92.1128

                     73                     74                     75
                      A                      A                      A
 Frequencies --   3037.7933              3062.7763              3068.2530
 Red. masses --      1.0702                 1.0682                 1.0624
 Frc consts  --      5.8186                 5.9041                 5.8925
 IR Inten    --     65.4178                23.0879                18.0270

                     76                     77                     78
                      A                      A                      A
 Frequencies --   3070.6958              3071.3249              3072.5728
 Red. masses --      1.0618                 1.0620                 1.0611
 Frc consts  --      5.8987                 5.9025                 5.9021
 IR Inten    --     33.4809                24.9779                51.9496

                     79                     80                     81
                      A                      A                      A
 Frequencies --   3092.1097              3119.4480              3122.7175
 Red. masses --      1.0821                 1.0968                 1.1020
 Frc consts  --      6.0955                 6.2885                 6.3315
 IR Inten    --     43.1350                38.4885                57.1505

                     82                     83                     84
                      A                      A                      A
 Frequencies --   3123.8713              3126.3297              3128.5154
 Red. masses --      1.1023                 1.1031                 1.1042
 Frc consts  --      6.3375                 6.3522                 6.3674
 IR Inten    --     34.3145                60.1358                53.5207

                     85                     86                     87
                      A                      A                      A
 Frequencies --   3140.9292              3143.3031              3143.7712
 Red. masses --      1.0952                 1.0959                 1.0960
 Frc consts  --      6.3658                 6.3799                 6.3820
 IR Inten    --     40.7513                38.1572                34.9805

 - Thermochemistry -
 -------------------
 Temperature   298.150 Kelvin.  Pressure   1.00000 Atm.
 Atom     1 has atomic number  6 and mass  12.00000

 Molecular mass:   186.12559 amu.
 Principal axes and moments of inertia in atomic units:
                           1         2         3
     Eigenvalues --   847.545664732.209545174.58967
           X            0.99999  -0.00207   0.00460
           Y            0.00214   0.99988  -0.01557
           Z           -0.00457   0.01558   0.99987
 This molecule is an asymmetric top.
 Rotational symmetry number  1.
 Warning -- assumption of classical behavior for rotation
           may cause significant error
 Rotational temperatures (Kelvin)      0.10219     0.01830     0.01674
 Rotational constants (GHZ):           2.12937     0.38137     0.34877
 Zero-point vibrational energy     736801.5 (Joules/Mol)
                                  176.09979 (Kcal/Mol)
 Warning -- explicit consideration of  18 degrees of freedom as
           vibrations may cause significant error
 Vibrational temperatures:     23.80    84.74   121.42   229.73   273.22
          (Kelvin)            352.97   358.10   390.32   435.30   518.98
                              541.86   636.85   656.45   692.68   699.20
                              749.50   789.29   892.20   946.72  1196.03
                             1205.58  1214.43  1235.96  1269.79  1290.65
                             1348.40  1361.59  1379.65  1420.70  1446.67
                             1457.52  1488.56  1529.72  1559.42  1592.58
                             1625.71  1662.14  1667.83  1678.00  1708.81
                             1720.48  1728.70  1797.57  1811.35  1833.60
                             1839.98  1845.24  1899.02  1901.43  1927.74
                             1936.11  1957.26  1968.02  1993.21  1998.83
                             2015.06  2019.79  2028.76  2056.02  2064.06
                             2071.63  2111.39  2112.35  2118.67  2130.97
                             2145.47  2157.60  2167.21  2170.71  4298.55
                             4365.70  4369.93  4370.71  4406.65  4414.53
                             4418.05  4418.95  4420.75  4448.86  4488.19
                             4492.89  4494.55  4498.09  4501.24  4519.10
                             4522.51  4523.19

 Zero-point correction=                           0.280633 (Hartree/Particle)
 Thermal correction to Energy=                    0.292464
 Thermal correction to Enthalpy=                  0.293408
 Thermal correction to Gibbs Free Energy=         0.241430
 Sum of electronic and zero-point Energies=           -617.224589
 Sum of electronic and thermal Energies=              -617.212758
 Sum of electronic and thermal Enthalpies=            -617.211814
 Sum of electronic and thermal Free Energies=         -617.263793

                     E (Thermal)             CV                S
                      KCal/Mol        Cal/Mol-Kelvin    Cal/Mol-Kelvin
 Total                  183.524             46.812            109.398
 Electronic               0.000              0.000              0.000
 Translational            0.889              2.981             41.570
 Rotational               0.889              2.981             31.407
 Vibrational            181.747             40.851             36.421
 Vibration     1          0.593              1.986              7.011
 Vibration     2          0.596              1.974              4.494
 Vibration     3          0.601              1.960              3.786
 Vibration     4          0.622              1.892              2.554
 Vibration     5          0.633              1.854              2.229
 Vibration     6          0.660              1.771              1.764
 Vibration     7          0.662              1.765              1.738
 Vibration     8          0.675              1.726              1.588
 Vibration     9          0.694              1.669              1.403
 Vibration    10          0.735              1.553              1.119
 Vibration    11          0.747              1.520              1.053
 Vibration    12          0.802              1.377              0.818
 Vibration    13          0.814              1.347              0.777
 Vibration    14          0.838              1.291              0.706
 Vibration    15          0.842              1.281              0.694
 Vibration    16          0.876              1.204              0.608
 Vibration    17          0.904              1.143              0.547
 Vibration    18          0.980              0.989              0.416

 Optimization completed.
    -- Stationary point found.
 Normal termination of Gaussian 16 at Sat Mar  9 06:58:26 2019.
