 Gaussian 16, Revision B.01,
 Gaussian 16:  ES64L-G16RevB.01 20-Dec-2017

 ----------------------------------------------------------------------
 #M062X/6-311++G(2d,2p) opt=ModRedundant freq=noraman SCRF=(SMD,solvent
 =water)
 ----------------------------------------------------------------------

 -------------------------------
 4c1_b1_e3_4c1_PHI.inp_extract_2
 -------------------------------
 Symbolic Z-matrix:
 Charge =  0 Multiplicity = 1

 SCF Done:  E(RM062X) =  -617.507489522     A.U. after   12 cycles
 SCF Done:  E(RM062X) =  -617.509033719     A.U. after   10 cycles
 SCF Done:  E(RM062X) =  -617.509191305     A.U. after    9 cycles
 SCF Done:  E(RM062X) =  -617.509269853     A.U. after    9 cycles
 SCF Done:  E(RM062X) =  -617.509384422     A.U. after   10 cycles
 SCF Done:  E(RM062X) =  -617.509497776     A.U. after   10 cycles
 SCF Done:  E(RM062X) =  -617.509547035     A.U. after   10 cycles
 SCF Done:  E(RM062X) =  -617.509570056     A.U. after   10 cycles
 SCF Done:  E(RM062X) =  -617.509574624     A.U. after    9 cycles
 SCF Done:  E(RM062X) =  -617.509576002     A.U. after    8 cycles
 Optimization completed.
    -- Stationary point found.
 Normal termination of Gaussian 16 at Sat Mar  9 05:52:32 2019.

 ----------------------------------------------------------------------
 #N Geom=AllCheck Guess=TCheck SCRF=Check GenChk RM062X/6-311++G(2d,2p)
  Freq
 ----------------------------------------------------------------------

 Structure from the checkpoint file:  "4c1_b1_e3_4c1_PHI.inp_extract_2.chk"
 -------------------------------
 4c1_b1_e3_4c1_PHI.inp_extract_2
 -------------------------------
 Charge =  0 Multiplicity = 1

                         Standard orientation:
 ---------------------------------------------------------------------
 Center     Atomic      Atomic             Coordinates (Angstroms)
 Number     Number       Type             X           Y           Z
 ---------------------------------------------------------------------
      1          6           0       -1.508589    0.723285    0.831073
      2          6           0       -3.592800   -0.508809   -0.698765
      3          6           0        2.319484   -1.255150    0.527958
      4          6           0       -1.151433   -0.244384   -0.289378
      5          6           0       -2.278654   -1.242097   -0.488405
      6          8           0        1.474942    0.542274   -0.851642
      7          6           0        3.616481   -0.479914    0.759362
      8          8           0       -3.880902    0.352668    0.397457
      9          6           0        3.860560    0.487881   -0.396528
     10          6           0        1.187368   -0.285620    0.264615
     11          6           0        2.630771    1.350498   -0.616557
     12          6           0       -2.870411    1.342593    0.548976
     13          8           0        0.028537   -1.013500   -0.022327
     14          1           0       -1.537485    0.183265    1.780602
     15          1           0       -0.776957    1.527671    0.912980
     16          1           0       -4.422079   -1.208568   -0.771868
     17          1           0       -3.555236    0.083973   -1.619485
     18          1           0        2.414172   -1.907118   -0.343464
     19          1           0        2.065661   -1.869362    1.391691
     20          1           0       -1.005121    0.319549   -1.214590
     21          1           0       -2.071253   -1.879924   -1.348167
     22          1           0       -2.354550   -1.874421    0.399063
     23          1           0        4.451993   -1.169451    0.871837
     24          1           0        3.535409    0.086129    1.691081
     25          1           0        4.069568   -0.070041   -1.312114
     26          1           0        4.717402    1.131259   -0.194652
     27          1           0        1.034053    0.361282    1.137390
     28          1           0        2.449277    1.984502    0.258731
     29          1           0        2.734508    1.989516   -1.490421
     30          1           0       -2.824946    1.948954   -0.362748
     31          1           0       -3.181688    1.981558    1.372131
 ---------------------------------------------------------------------

 SCF Done:  E(RM062X) =  -617.509576002     A.U. after    1 cycles

 The electronic state is 1-A.
 Alpha  occ. eigenvalues --  -19.63566 -19.63043 -19.62917 -10.63130 -10.58425
 Alpha  occ. eigenvalues --  -10.57680 -10.57612 -10.57548 -10.52553 -10.52540
 Alpha  occ. eigenvalues --  -10.52505 -10.52420 -10.52251  -1.19972  -1.16215
 Alpha  occ. eigenvalues --   -1.13591  -0.90781  -0.89395  -0.86200  -0.84559
 Alpha  occ. eigenvalues --   -0.75125  -0.73135  -0.72137  -0.69602  -0.65291
 Alpha  occ. eigenvalues --   -0.64805  -0.59936  -0.57470  -0.56850  -0.54367
 Alpha  occ. eigenvalues --   -0.54266  -0.52619  -0.52102  -0.50839  -0.50115
 Alpha  occ. eigenvalues --   -0.49477  -0.46432  -0.45626  -0.44527  -0.43890
 Alpha  occ. eigenvalues --   -0.43101  -0.41358  -0.40637  -0.40014  -0.39094
 Alpha  occ. eigenvalues --   -0.38457  -0.37222  -0.36959  -0.34504  -0.33130
 Alpha  occ. eigenvalues --   -0.32483
 Alpha virt. eigenvalues --    0.00491   0.01294   0.01360   0.01476   0.02727
 Alpha virt. eigenvalues --    0.02856   0.02966   0.03981   0.04100   0.04817
 Alpha virt. eigenvalues --    0.05110   0.05517   0.05763   0.05985   0.07323

 Mulliken charges:
               1
     1  C   -0.046519
     2  C   -0.294111
     3  C   -0.323484
     4  C   -0.306428
     5  C   -0.210691
     6  O   -0.388336
     7  C   -0.420973
     8  O   -0.370079
     9  C   -0.348836
    10  C    0.052563
    11  C   -0.125590
    12  C   -0.396257
    13  O   -0.374090
    14  H    0.223650
    15  H    0.191114
    16  H    0.225880
    17  H    0.159359
    18  H    0.197579
    19  H    0.180727
    20  H    0.273063
    21  H    0.181950
    22  H    0.196618
    23  H    0.205252
    24  H    0.172816
    25  H    0.163559
    26  H    0.179739
    27  H    0.259764
    28  H    0.154593
    29  H    0.198691
    30  H    0.177860
    31  H    0.210617
 Sum of Mulliken charges =  -0.00000

 Dipole moment (field-independent basis, Debye):
    X=              3.1685    Y=              2.0606    Z=              0.6364  Tot=              3.8328
 Quadrupole moment (field-independent basis, Debye-Ang):
   XX=            -80.4422   YY=            -77.5065   ZZ=            -79.4163
   XY=              3.1800   XZ=              7.5203   YZ=              1.2092

  Exact polarizability: 184.209   2.901 174.909   1.800   0.658 169.046
 Approx polarizability: 146.000   2.549 144.252   0.404   0.557 142.461

                      1                      2                      3
                      A                      A                      A
 Frequencies --     13.9334                59.4891                85.8584
 Red. masses --      3.2126                 4.3245                 3.8035
 Frc consts  --      0.0004                 0.0090                 0.0165
 IR Inten    --      1.0513                 3.0847                 1.6348

                      4                      5                      6
                      A                      A                      A
 Frequencies --    160.3373               188.0793               242.1695
 Red. masses --      3.5007                 3.5912                 1.8638
 Frc consts  --      0.0530                 0.0748                 0.0644
 IR Inten    --      5.9954                10.1989                 0.5040

                      7                      8                      9
                      A                      A                      A
 Frequencies --    246.7623               274.9159               322.5308
 Red. masses --      2.3772                 3.4594                 2.8033
 Frc consts  --      0.0853                 0.1540                 0.1718
 IR Inten    --      8.7067                 3.3496                 5.8369

                     10                     11                     12
                      A                      A                      A
 Frequencies --    360.5483               383.7964               440.8934
 Red. masses --      2.1883                 2.3842                 3.5380
 Frc consts  --      0.1676                 0.2069                 0.4052
 IR Inten    --      8.5032                 5.0170                 4.2298

                     13                     14                     15
                      A                      A                      A
 Frequencies --    457.0013               481.8558               488.2162
 Red. masses --      2.7797                 2.8728                 2.7088
 Frc consts  --      0.3420                 0.3930                 0.3804
 IR Inten    --      2.1471                 0.6748                 0.3771

                     16                     17                     18
                      A                      A                      A
 Frequencies --    520.1148               549.9432               607.2330
 Red. masses --      3.0302                 2.2125                 2.3402
 Frc consts  --      0.4830                 0.3942                 0.5084
 IR Inten    --      6.3244                 4.4315                10.7591

                     19                     20                     21
                      A                      A                      A
 Frequencies --    664.4169               831.3671               834.4301
 Red. masses --      2.9113                 1.5351                 1.7610
 Frc consts  --      0.7572                 0.6251                 0.7224
 IR Inten    --     38.5388                 1.2929                 9.7832

                     22                     23                     24
                      A                      A                      A
 Frequencies --    842.1991               863.1003               883.2040
 Red. masses --      2.5574                 1.9719                 1.9309
 Frc consts  --      1.0687                 0.8655                 0.8874
 IR Inten    --     14.4189                13.7855                16.6771

                     25                     26                     27
                      A                      A                      A
 Frequencies --    901.0249               936.2814               941.7993
 Red. masses --      2.4902                 2.2162                 1.8502
 Frc consts  --      1.1911                 1.1446                 0.9669
 IR Inten    --     24.4629                37.4383                 5.6727

                     28                     29                     30
                      A                      A                      A
 Frequencies --    958.6424               990.1769              1006.2820
 Red. masses --      2.1348                 1.7982                 1.4823
 Frc consts  --      1.1559                 1.0387                 0.8844
 IR Inten    --     14.7932                28.8228                26.4380

                     31                     32                     33
                      A                      A                      A
 Frequencies --   1012.3640              1039.2074              1059.6063
 Red. masses --      1.9877                 2.2344                 1.5035
 Frc consts  --      1.2003                 1.4217                 0.9946
 IR Inten    --     21.2800                36.8606                77.5703

                     34                     35                     36
                      A                      A                      A
 Frequencies --   1089.4041              1099.1876              1126.1961
 Red. masses --      3.0324                 2.7309                 3.5721
 Frc consts  --      2.1204                 1.9440                 2.6693
 IR Inten    --     27.5858                85.4816               252.9320

                     37                     38                     39
                      A                      A                      A
 Frequencies --   1135.7161              1158.9523              1168.0125
 Red. masses --      3.3064                 2.3482                 2.6125
 Frc consts  --      2.5127                 1.8583                 2.0999
 IR Inten    --     60.7529                23.5124                43.4420

                     40                     41                     42
                      A                      A                      A
 Frequencies --   1187.6636              1196.1644              1204.8392
 Red. masses --      2.0074                 1.3524                 1.6323
 Frc consts  --      1.6683                 1.1401                 1.3960
 IR Inten    --     68.1629                12.4523                52.3684

                     43                     44                     45
                      A                      A                      A
 Frequencies --   1230.9623              1242.2811              1273.4643
 Red. masses --      3.8739                 1.6861                 1.3274
 Frc consts  --      3.4585                 1.5331                 1.2683
 IR Inten    --    365.4674                70.9408                 6.6493

                     46                     47                     48
                      A                      A                      A
 Frequencies --   1278.5873              1282.0150              1314.4908
 Red. masses --      1.2308                 1.2704                 1.2077
 Frc consts  --      1.1855                 1.2302                 1.2294
 IR Inten    --      8.6893                 7.8619                31.3043

                     49                     50                     51
                      A                      A                      A
 Frequencies --   1320.2484              1343.1183              1349.1701
 Red. masses --      1.3578                 1.3367                 1.2788
 Frc consts  --      1.3945                 1.4208                 1.3715
 IR Inten    --     18.0225                 8.7211                 3.4878

                     52                     53                     54
                      A                      A                      A
 Frequencies --   1359.8681              1366.6927              1384.6420
 Red. masses --      1.1893                 1.4205                 1.5164
 Frc consts  --      1.2958                 1.5632                 1.7129
 IR Inten    --      6.1625                 1.0713                 4.8646

                     55                     56                     57
                      A                      A                      A
 Frequencies --   1390.6566              1393.4313              1405.5788
 Red. masses --      1.2748                 1.2933                 1.4871
 Frc consts  --      1.4525                 1.4795                 1.7310
 IR Inten    --     17.7990                43.7566                48.4801

                     58                     59                     60
                      A                      A                      A
 Frequencies --   1409.6719              1421.0845              1429.8235
 Red. masses --      1.5228                 1.3272                 1.3381
 Frc consts  --      1.7829                 1.5792                 1.6118
 IR Inten    --     20.2161                16.9206                 7.3297

                     61                     62                     63
                      A                      A                      A
 Frequencies --   1441.5300              1467.8804              1470.4772
 Red. masses --      1.5954                 1.1000                 1.1196
 Frc consts  --      1.9533                 1.3965                 1.4264
 IR Inten    --     33.6492                 4.7532                 3.0042

                     64                     65                     66
                      A                      A                      A
 Frequencies --   1472.6266              1480.8640              1490.2694
 Red. masses --      1.1008                 1.1227                 1.1256
 Frc consts  --      1.4065                 1.4506                 1.4728
 IR Inten    --     10.2650                 7.7563                26.6177

                     67                     68                     69
                      A                      A                      A
 Frequencies --   1499.7596              1503.2191              1509.4003
 Red. masses --      1.0828                 1.0962                 1.1027
 Frc consts  --      1.4350                 1.4594                 1.4801
 IR Inten    --      3.1395                 5.5809                 7.4771

                     70                     71                     72
                      A                      A                      A
 Frequencies --   3028.4992              3035.7791              3035.8037
 Red. masses --      1.0819                 1.0702                 1.0706
 Frc consts  --      5.8465                 5.8109                 5.8132
 IR Inten    --     49.7184                90.8391                54.4270

                     73                     74                     75
                      A                      A                      A
 Frequencies --   3038.3290              3060.9997              3062.2879
 Red. masses --      1.0702                 1.0688                 1.0791
 Frc consts  --      5.8206                 5.9003                 5.9619
 IR Inten    --     79.9977                25.3766                 4.0969

                     76                     77                     78
                      A                      A                      A
 Frequencies --   3069.1833              3069.4861              3072.7955
 Red. masses --      1.0615                 1.0616                 1.0615
 Frc consts  --      5.8916                 5.8928                 5.9053
 IR Inten    --     46.7880                 9.0579                51.5482

                     79                     80                     81
                      A                      A                      A
 Frequencies --   3074.7008              3118.2251              3122.2109
 Red. masses --      1.0650                 1.0987                 1.1000
 Frc consts  --      5.9323                 6.2941                 6.3179
 IR Inten    --     75.6575                42.8555                56.9839

                     82                     83                     84
                      A                      A                      A
 Frequencies --   3124.6298              3125.8069              3129.5553
 Red. masses --      1.1025                 1.1034                 1.1037
 Frc consts  --      6.3418                 6.3518                 6.3689
 IR Inten    --     33.5525                57.6666                48.4239

                     85                     86                     87
                      A                      A                      A
 Frequencies --   3141.6047              3142.0538              3144.0852
 Red. masses --      1.0954                 1.0959                 1.0961
 Frc consts  --      6.3699                 6.3743                 6.3837
 IR Inten    --     39.0785                40.0977                33.5986

 - Thermochemistry -
 -------------------
 Temperature   298.150 Kelvin.  Pressure   1.00000 Atm.
 Atom     1 has atomic number  6 and mass  12.00000

 Molecular mass:   186.12559 amu.
 Principal axes and moments of inertia in atomic units:
                           1         2         3
     Eigenvalues --   838.108594904.838585192.08141
           X            0.99997   0.00179   0.00723
           Y           -0.00187   0.99993   0.01187
           Z           -0.00721  -0.01189   0.99990
 This molecule is an asymmetric top.
 Rotational symmetry number  1.
 Warning -- assumption of classical behavior for rotation
           may cause significant error
 Rotational temperatures (Kelvin)      0.10334     0.01766     0.01668
 Rotational constants (GHZ):           2.15335     0.36795     0.34759
 Zero-point vibrational energy     736551.3 (Joules/Mol)
                                  176.03999 (Kcal/Mol)
 Warning -- explicit consideration of  18 degrees of freedom as
           vibrations may cause significant error
 Vibrational temperatures:     20.05    85.59   123.53   230.69   270.60
          (Kelvin)            348.43   355.04   395.54   464.05   518.75
                              552.20   634.35   657.52   693.28   702.43
                              748.33   791.25   873.67   955.95  1196.15
                             1200.56  1211.74  1241.81  1270.73  1296.37
                             1347.10  1355.04  1379.27  1424.64  1447.82
                             1456.57  1495.19  1524.54  1567.41  1581.49
                             1620.35  1634.04  1667.47  1680.51  1708.78
                             1721.01  1733.49  1771.08  1787.37  1832.23
                             1839.60  1844.53  1891.26  1899.54  1932.45
                             1941.15  1956.55  1966.37  1992.19  2000.84
                             2004.84  2022.31  2028.20  2044.62  2057.20
                             2074.04  2111.95  2115.69  2118.78  2130.63
                             2144.17  2157.82  2162.80  2171.69  4357.33
                             4367.81  4367.84  4371.48  4404.10  4405.95
                             4415.87  4416.31  4421.07  4423.81  4486.43
                             4492.17  4495.65  4497.34  4502.73  4520.07
                             4520.71  4523.64

 Zero-point correction=                           0.280538 (Hartree/Particle)
 Thermal correction to Energy=                    0.292350
 Thermal correction to Enthalpy=                  0.293294
 Thermal correction to Gibbs Free Energy=         0.241209
 Sum of electronic and zero-point Energies=           -617.229038
 Sum of electronic and thermal Energies=              -617.217226
 Sum of electronic and thermal Enthalpies=            -617.216282
 Sum of electronic and thermal Free Energies=         -617.268367

                     E (Thermal)             CV                S
                      KCal/Mol        Cal/Mol-Kelvin    Cal/Mol-Kelvin
 Total                  183.452             46.813            109.624
 Electronic               0.000              0.000              0.000
 Translational            0.889              2.981             41.570
 Rotational               0.889              2.981             31.435
 Vibrational            181.675             40.851             36.619
 Vibration     1          0.593              1.986              7.352
 Vibration     2          0.597              1.974              4.474
 Vibration     3          0.601              1.959              3.752
 Vibration     4          0.622              1.891              2.546
 Vibration     5          0.633              1.856              2.247
 Vibration     6          0.658              1.776              1.787
 Vibration     7          0.661              1.768              1.754
 Vibration     8          0.677              1.720              1.565
 Vibration     9          0.708              1.630              1.297
 Vibration    10          0.735              1.554              1.120
 Vibration    11          0.753              1.505              1.024
 Vibration    12          0.801              1.381              0.824
 Vibration    13          0.815              1.345              0.775
 Vibration    14          0.838              1.290              0.705
 Vibration    15          0.844              1.276              0.688
 Vibration    16          0.875              1.205              0.610
 Vibration    17          0.905              1.140              0.544
 Vibration    18          0.966              1.016              0.437

                           ! Non-Optimized Parameters !
 Normal termination of Gaussian 16 at Sat Mar  9 06:55:43 2019.
