 Gaussian 16, Revision B.01,
 Gaussian 16:  ES64L-G16RevB.01 20-Dec-2017

 ----------------------------------------------------------------------
 #M062X/6-311++G(2d,2p) opt=ModRedundant freq=noraman SCRF=(SMD,solvent
 =water)
 ----------------------------------------------------------------------

 --------------------------------
 4c1_b1_e3_4c1_PHI.inp_extract_23
 --------------------------------
 Symbolic Z-matrix:
 Charge =  0 Multiplicity = 1

 SCF Done:  E(RM062X) =  -617.507322024     A.U. after   12 cycles
 SCF Done:  E(RM062X) =  -617.508970092     A.U. after   10 cycles
 SCF Done:  E(RM062X) =  -617.509122418     A.U. after    9 cycles
 SCF Done:  E(RM062X) =  -617.509136825     A.U. after    8 cycles
 SCF Done:  E(RM062X) =  -617.509138348     A.U. after    7 cycles
 Optimization completed.
    -- Stationary point found.
 Normal termination of Gaussian 16 at Sat Mar  9 10:50:58 2019.

 ----------------------------------------------------------------------
 #N Geom=AllCheck Guess=TCheck SCRF=Check GenChk RM062X/6-311++G(2d,2p)
  Freq
 ----------------------------------------------------------------------

 Structure from the checkpoint file:  "4c1_b1_e3_4c1_PHI.inp_extract_23.chk"
 --------------------------------
 4c1_b1_e3_4c1_PHI.inp_extract_23
 --------------------------------
 Charge =  0 Multiplicity = 1

                         Standard orientation:
 ---------------------------------------------------------------------
 Center     Atomic      Atomic             Coordinates (Angstroms)
 Number     Number       Type             X           Y           Z
 ---------------------------------------------------------------------
      1          6           0       -2.321689   -1.235421   -0.506398
      2          6           0       -2.885426    1.339302    0.592381
      3          6           0        2.235514   -1.358153    0.189490
      4          6           0       -1.206629   -0.436489    0.140383
      5          6           0       -1.504441    1.051981    0.022804
      6          8           0        1.620076    0.783899   -0.736960
      7          6           0        3.540212   -0.766540    0.722320
      8          8           0       -3.888184    0.575022   -0.069454
      9          6           0        3.944617    0.443017   -0.116489
     10          6           0        1.174626   -0.280807    0.092380
     11          6           0        2.784729    1.418444   -0.202980
     12          6           0       -3.659917   -0.821489    0.087031
     13          8           0        0.018093   -0.797980   -0.504979
     14          1           0       -2.324142   -1.040129   -1.581047
     15          1           0       -2.165896   -2.303252   -0.350355
     16          1           0       -3.153108    2.384842    0.458757
     17          1           0       -2.908900    1.108850    1.663514
     18          1           0        2.383109   -1.771503   -0.811241
     19          1           0        1.866458   -2.153632    0.837035
     20          1           0       -1.134899   -0.709040    1.199171
     21          1           0       -0.761299    1.643625    0.559427
     22          1           0       -1.475500    1.337573   -1.031183
     23          1           0        4.325399   -1.521458    0.722015
     24          1           0        3.393932   -0.451353    1.759008
     25          1           0        4.214757    0.124121   -1.125711
     26          1           0        4.807740    0.949893    0.315977
     27          1           0        0.944556    0.122408    1.086728
     28          1           0        2.549247    1.817620    0.790323
     29          1           0        3.004817    2.251955   -0.866098
     30          1           0       -3.694764   -1.072193    1.153134
     31          1           0       -4.480956   -1.328929   -0.413850
 ---------------------------------------------------------------------

 SCF Done:  E(RM062X) =  -617.509138348     A.U. after    1 cycles

 The electronic state is 1-A.
 Alpha  occ. eigenvalues --  -19.63485 -19.62934 -19.62929 -10.63216 -10.58597
 Alpha  occ. eigenvalues --  -10.57668 -10.57641 -10.57475 -10.52565 -10.52501
 Alpha  occ. eigenvalues --  -10.52443 -10.52351 -10.52223  -1.19824  -1.16189
 Alpha  occ. eigenvalues --   -1.13682  -0.90629  -0.89475  -0.86169  -0.84554
 Alpha  occ. eigenvalues --   -0.74505  -0.73161  -0.72398  -0.69843  -0.65945
 Alpha  occ. eigenvalues --   -0.64493  -0.59754  -0.57894  -0.55869  -0.54544
 Alpha  occ. eigenvalues --   -0.54335  -0.52591  -0.52345  -0.51158  -0.49649
 Alpha  occ. eigenvalues --   -0.48878  -0.46484  -0.45903  -0.44989  -0.44464
 Alpha  occ. eigenvalues --   -0.42399  -0.41482  -0.40393  -0.39910  -0.39123
 Alpha  occ. eigenvalues --   -0.38450  -0.37188  -0.37089  -0.34787  -0.33432
 Alpha  occ. eigenvalues --   -0.31933
 Alpha virt. eigenvalues --    0.00512   0.01262   0.01381   0.01469   0.02703
 Alpha virt. eigenvalues --    0.02860   0.02979   0.03976   0.04135   0.04692
 Alpha virt. eigenvalues --    0.05186   0.05426   0.05760   0.06288   0.07450

 Mulliken charges:
               1
     1  C   -0.209245
     2  C   -0.421581
     3  C   -0.311854
     4  C   -0.292790
     5  C   -0.091447
     6  O   -0.412755
     7  C   -0.385860
     8  O   -0.367938
     9  C   -0.378457
    10  C    0.125386
    11  C   -0.106953
    12  C   -0.278884
    13  O   -0.387211
    14  H    0.197728
    15  H    0.180049
    16  H    0.209770
    17  H    0.177154
    18  H    0.201875
    19  H    0.165009
    20  H    0.278863
    21  H    0.169484
    22  H    0.231888
    23  H    0.196968
    24  H    0.174398
    25  H    0.164590
    26  H    0.182069
    27  H    0.249396
    28  H    0.150097
    29  H    0.205030
    30  H    0.158089
    31  H    0.227130
 Sum of Mulliken charges =  -0.00000

 Dipole moment (field-independent basis, Debye):
    X=              2.7454    Y=             -0.3759    Z=              4.5466  Tot=              5.3245
 Quadrupole moment (field-independent basis, Debye-Ang):
   XX=            -79.9959   YY=            -76.5138   ZZ=            -80.9945
   XY=              6.4494   XZ=             -0.4991   YZ=              0.8614

  Exact polarizability: 184.893   4.498 175.579  -0.288   1.121 167.703
 Approx polarizability: 146.323   2.925 143.872   0.448   0.712 142.516

                      1                      2                      3
                      A                      A                      A
 Frequencies --     39.5463                57.3978                72.6122
 Red. masses --      4.4300                 3.2229                 3.5942
 Frc consts  --      0.0041                 0.0063                 0.0112
 IR Inten    --      0.6434                 0.4073                 0.4212

                      4                      5                      6
                      A                      A                      A
 Frequencies --    150.9658               211.0512               245.5908
 Red. masses --      3.4047                 3.8809                 1.8753
 Frc consts  --      0.0457                 0.1018                 0.0666
 IR Inten    --      7.5851                 5.1728                 1.5977

                      7                      8                      9
                      A                      A                      A
 Frequencies --    252.4045               265.0674               312.4600
 Red. masses --      2.1094                 4.2140                 2.5633
 Frc consts  --      0.0792                 0.1744                 0.1474
 IR Inten    --     11.8279                 1.1819                 4.7707

                     10                     11                     12
                      A                      A                      A
 Frequencies --    360.3566               396.8319               435.8929
 Red. masses --      2.1421                 2.5019                 4.2310
 Frc consts  --      0.1639                 0.2321                 0.4736
 IR Inten    --      4.0024                10.2548                 5.6896

                     13                     14                     15
                      A                      A                      A
 Frequencies --    455.3084               471.2725               506.5189
 Red. masses --      2.6234                 3.0233                 2.6058
 Frc consts  --      0.3204                 0.3956                 0.3939
 IR Inten    --      1.4580                 0.4652                 3.7582

                     16                     17                     18
                      A                      A                      A
 Frequencies --    515.9784               550.6899               599.4534
 Red. masses --      2.8821                 2.8018                 2.1592
 Frc consts  --      0.4521                 0.5006                 0.4572
 IR Inten    --      2.3723                 1.8916                16.6233

                     19                     20                     21
                      A                      A                      A
 Frequencies --    659.4374               832.1797               835.1340
 Red. masses --      2.5777                 1.4932                 1.8214
 Frc consts  --      0.6604                 0.6093                 0.7485
 IR Inten    --     28.5067                 2.3771                 6.5504

                     22                     23                     24
                      A                      A                      A
 Frequencies --    842.5806               862.2540               882.6033
 Red. masses --      2.5039                 1.9836                 1.8733
 Frc consts  --      1.0473                 0.8689                 0.8598
 IR Inten    --     16.3660                 9.3438                13.5604

                     25                     26                     27
                      A                      A                      A
 Frequencies --    898.0746               934.2802               938.4760
 Red. masses --      2.5073                 2.0871                 2.0417
 Frc consts  --      1.1915                 1.0734                 1.0594
 IR Inten    --     36.7245                33.5167                 9.8607

                     28                     29                     30
                      A                      A                      A
 Frequencies --    960.4644               995.9678              1006.8450
 Red. masses --      2.1117                 1.6919                 1.4528
 Frc consts  --      1.1477                 0.9888                 0.8677
 IR Inten    --      8.3768                44.9246                23.5066

                     31                     32                     33
                      A                      A                      A
 Frequencies --   1017.4027              1035.1409              1056.8885
 Red. masses --      2.0429                 2.1557                 1.5352
 Frc consts  --      1.2459                 1.3609                 1.0104
 IR Inten    --     14.7330                40.6295                99.1533

                     34                     35                     36
                      A                      A                      A
 Frequencies --   1088.1225              1107.4257              1119.8210
 Red. masses --      2.6300                 3.0439                 4.5537
 Frc consts  --      1.8347                 2.1994                 3.3644
 IR Inten    --     71.0223                61.5194               266.4508

                     37                     38                     39
                      A                      A                      A
 Frequencies --   1131.6203              1157.3198              1172.7971
 Red. masses --      3.1533                 2.3383                 2.7718
 Frc consts  --      2.3791                 1.8452                 2.2462
 IR Inten    --     56.1364                 9.8531                64.4570

                     40                     41                     42
                      A                      A                      A
 Frequencies --   1185.3050              1195.1365              1207.8056
 Red. masses --      1.9979                 1.4126                 1.6962
 Frc consts  --      1.6538                 1.1888                 1.4579
 IR Inten    --     72.0650                30.8221               101.8246

                     43                     44                     45
                      A                      A                      A
 Frequencies --   1227.5317              1238.6054              1272.6044
 Red. masses --      2.8040                 1.7757                 1.3167
 Frc consts  --      2.4894                 1.6051                 1.2564
 IR Inten    --    301.7419                35.4660                12.6152

                     46                     47                     48
                      A                      A                      A
 Frequencies --   1278.3785              1284.3412              1314.9750
 Red. masses --      1.2445                 1.2925                 1.2101
 Frc consts  --      1.1983                 1.2561                 1.2329
 IR Inten    --     13.6006                 2.2654                32.4135

                     49                     50                     51
                      A                      A                      A
 Frequencies --   1323.7303              1341.8330              1348.7806
 Red. masses --      1.3679                 1.3275                 1.2935
 Frc consts  --      1.4122                 1.4083                 1.3864
 IR Inten    --     10.1416                 7.6168                 1.7780

                     52                     53                     54
                      A                      A                      A
 Frequencies --   1361.6013              1366.8139              1384.5898
 Red. masses --      1.1744                 1.4423                 1.4920
 Frc consts  --      1.2828                 1.5876                 1.6852
 IR Inten    --     16.9462                 1.1266                 8.0025

                     55                     56                     57
                      A                      A                      A
 Frequencies --   1389.8963              1391.6521              1405.8812
 Red. masses --      1.2917                 1.2967                 1.4417
 Frc consts  --      1.4702                 1.4796                 1.6789
 IR Inten    --     22.7262                 7.5720                73.3569

                     58                     59                     60
                      A                      A                      A
 Frequencies --   1411.5513              1419.3833              1429.4457
 Red. masses --      1.5834                 1.3619                 1.3413
 Frc consts  --      1.8588                 1.6165                 1.6148
 IR Inten    --     47.1097                20.5991                 2.4152

                     61                     62                     63
                      A                      A                      A
 Frequencies --   1453.3623              1466.5097              1471.3701
 Red. masses --      1.3899                 1.1023                 1.1095
 Frc consts  --      1.7298                 1.3968                 1.4153
 IR Inten    --     26.4991                 5.0739                 4.4915

                     64                     65                     66
                      A                      A                      A
 Frequencies --   1473.5327              1481.8249              1488.6615
 Red. masses --      1.1296                 1.1342                 1.1291
 Frc consts  --      1.4451                 1.4674                 1.4743
 IR Inten    --     10.3407                 8.5192                27.1529

                     67                     68                     69
                      A                      A                      A
 Frequencies --   1500.0389              1504.5044              1508.6491
 Red. masses --      1.0830                 1.0975                 1.1016
 Frc consts  --      1.4358                 1.4637                 1.4772
 IR Inten    --      3.3807                 5.1320                 8.6088

                     70                     71                     72
                      A                      A                      A
 Frequencies --   3027.4612              3033.9625              3035.8138
 Red. masses --      1.0839                 1.0702                 1.0706
 Frc consts  --      5.8532                 5.8041                 5.8134
 IR Inten    --     40.1974                66.7795                48.2569

                     73                     74                     75
                      A                      A                      A
 Frequencies --   3037.6735              3040.3698              3059.8854
 Red. masses --      1.0713                 1.0821                 1.0686
 Frc consts  --      5.8243                 5.8933                 5.8949
 IR Inten    --     39.0483               113.0552                24.0186

                     76                     77                     78
                      A                      A                      A
 Frequencies --   3068.9588              3069.9580              3070.1330
 Red. masses --      1.0618                 1.0602                 1.0610
 Frc consts  --      5.8921                 5.8870                 5.8925
 IR Inten    --     24.1858                19.7791                58.0254

                     79                     80                     81
                      A                      A                      A
 Frequencies --   3073.4394              3118.3402              3121.2160
 Red. masses --      1.0612                 1.0969                 1.1012
 Frc consts  --      5.9060                 6.2845                 6.3208
 IR Inten    --     50.4277                41.5878                54.2538

                     82                     83                     84
                      A                      A                      A
 Frequencies --   3121.7783              3125.1949              3126.1253
 Red. masses --      1.1041                 1.1044                 1.1035
 Frc consts  --      6.3397                 6.3554                 6.3536
 IR Inten    --     37.8369                63.3765                45.6466

                     85                     86                     87
                      A                      A                      A
 Frequencies --   3139.9575              3142.9676              3145.2559
 Red. masses --      1.0959                 1.0953                 1.0959
 Frc consts  --      6.3659                 6.3748                 6.3875
 IR Inten    --     41.0234                39.4871                34.2051

 - Thermochemistry -
 -------------------
 Temperature   298.150 Kelvin.  Pressure   1.00000 Atm.
 Atom     1 has atomic number  6 and mass  12.00000

 Molecular mass:   186.12559 amu.
 Principal axes and moments of inertia in atomic units:
                           1         2         3
     Eigenvalues --   833.229454897.106515396.31403
           X            0.99999   0.00382   0.00121
           Y           -0.00382   0.99997   0.00642
           Z           -0.00119  -0.00643   0.99998
 This molecule is an asymmetric top.
 Rotational symmetry number  1.
 Warning -- assumption of classical behavior for rotation
           may cause significant error
 Rotational temperatures (Kelvin)      0.10395     0.01769     0.01605
 Rotational constants (GHZ):           2.16596     0.36853     0.33444
 Zero-point vibrational energy     736427.2 (Joules/Mol)
                                  176.01034 (Kcal/Mol)
 Warning -- explicit consideration of  18 degrees of freedom as
           vibrations may cause significant error
 Vibrational temperatures:     56.90    82.58   104.47   217.21   303.66
          (Kelvin)            353.35   363.15   381.37   449.56   518.47
                              570.95   627.15   655.09   678.06   728.77
                              742.38   792.32   862.48   948.78  1197.32
                             1201.57  1212.29  1240.59  1269.87  1292.13
                             1344.22  1350.26  1381.89  1432.98  1448.63
                             1463.82  1489.34  1520.63  1565.57  1593.34
                             1611.17  1628.15  1665.13  1687.39  1705.39
                             1719.53  1737.76  1766.14  1782.08  1830.99
                             1839.30  1847.88  1891.96  1904.55  1930.60
                             1940.59  1959.04  1966.54  1992.12  1999.75
                             2002.28  2022.75  2030.91  2042.18  2056.65
                             2091.06  2109.98  2116.97  2120.08  2132.02
                             2141.85  2158.22  2164.65  2170.61  4355.84
                             4365.20  4367.86  4370.53  4374.41  4402.49
                             4415.55  4416.98  4417.24  4421.99  4486.60
                             4490.73  4491.54  4496.46  4497.80  4517.70
                             4522.03  4525.32

 Zero-point correction=                           0.280490 (Hartree/Particle)
 Thermal correction to Energy=                    0.292267
 Thermal correction to Enthalpy=                  0.293211
 Thermal correction to Gibbs Free Energy=         0.241935
 Sum of electronic and zero-point Energies=           -617.228648
 Sum of electronic and thermal Energies=              -617.216871
 Sum of electronic and thermal Enthalpies=            -617.215927
 Sum of electronic and thermal Free Energies=         -617.267203

                     E (Thermal)             CV                S
                      KCal/Mol        Cal/Mol-Kelvin    Cal/Mol-Kelvin
 Total                  183.400             46.823            107.920
 Electronic               0.000              0.000              0.000
 Translational            0.889              2.981             41.570
 Rotational               0.889              2.981             31.466
 Vibrational            181.623             40.861             34.884
 Vibration     1          0.594              1.981              5.282
 Vibration     2          0.596              1.975              4.545
 Vibration     3          0.599              1.967              4.081
 Vibration     4          0.618              1.902              2.660
 Vibration     5          0.643              1.824              2.035
 Vibration     6          0.660              1.770              1.762
 Vibration     7          0.664              1.759              1.714
 Vibration     8          0.671              1.737              1.628
 Vibration     9          0.701              1.650              1.349
 Vibration    10          0.735              1.554              1.121
 Vibration    11          0.763              1.477              0.974
 Vibration    12          0.796              1.392              0.840
 Vibration    13          0.814              1.349              0.780
 Vibration    14          0.828              1.314              0.734
 Vibration    15          0.862              1.236              0.642
 Vibration    16          0.871              1.215              0.619
 Vibration    17          0.906              1.138              0.543
 Vibration    18          0.958              1.033              0.451

                           ! Non-Optimized Parameters !
 Normal termination of Gaussian 16 at Sat Mar  9 11:52:35 2019.
