 Gaussian 16, Revision B.01,
 Gaussian 16:  ES64L-G16RevB.01 20-Dec-2017

 ----------------------------------------------------------------------
 #M062X/6-311++G(2d,2p) opt=ModRedundant freq=noraman SCRF=(SMD,solvent
 =water)
 ----------------------------------------------------------------------

 --------------------------------
 4c1_b1_e3_4c1_PHI.inp_extract_20
 --------------------------------
 Symbolic Z-matrix:
 Charge =  0 Multiplicity = 1

 SCF Done:  E(RM062X) =  -617.505171140     A.U. after   12 cycles
 SCF Done:  E(RM062X) =  -617.506773597     A.U. after   10 cycles
 SCF Done:  E(RM062X) =  -617.506880959     A.U. after    9 cycles
 SCF Done:  E(RM062X) =  -617.506892560     A.U. after    8 cycles
 SCF Done:  E(RM062X) =  -617.506894246     A.U. after    8 cycles
 SCF Done:  E(RM062X) =  -617.506894458     A.U. after    7 cycles
 Optimization completed.
    -- Stationary point found.
 Normal termination of Gaussian 16 at Sat Mar  9 10:12:54 2019.

 ----------------------------------------------------------------------
 #N Geom=AllCheck Guess=TCheck SCRF=Check GenChk RM062X/6-311++G(2d,2p)
  Freq
 ----------------------------------------------------------------------

 Structure from the checkpoint file:  "4c1_b1_e3_4c1_PHI.inp_extract_20.chk"
 --------------------------------
 4c1_b1_e3_4c1_PHI.inp_extract_20
 --------------------------------
 Charge =  0 Multiplicity = 1

                         Standard orientation:
 ---------------------------------------------------------------------
 Center     Atomic      Atomic             Coordinates (Angstroms)
 Number     Number       Type             X           Y           Z
 ---------------------------------------------------------------------
      1          6           0        2.197373    1.003637   -0.848035
      2          6           0        3.075261   -1.050647    0.932960
      3          6           0       -1.832116    1.212787    0.352720
      4          6           0        1.173201    0.205114   -0.063806
      5          6           0        1.726271   -1.180377    0.241561
      6          8           0       -2.042736   -0.809416   -0.948910
      7          6           0       -3.163398    0.927521    1.046618
      8          8           0        3.994673   -0.310363    0.136278
      9          6           0       -4.038587    0.068197    0.137917
     10          6           0       -1.187658   -0.089215   -0.084629
     11          6           0       -3.269339   -1.164277   -0.302679
     12          6           0        3.523187    1.011946   -0.102088
     13          8           0       -0.022963    0.131240   -0.843847
     14          1           0        2.333503    0.542803   -1.829058
     15          1           0        1.851147    2.027332   -0.993119
     16          1           0        3.524642   -2.026868    1.099606
     17          1           0        2.958768   -0.551630    1.901633
     18          1           0       -1.990814    1.819179   -0.542136
     19          1           0       -1.146767    1.746959    1.011694
     20          1           0        0.960189    0.727862    0.874750
     21          1           0        1.045335   -1.745774    0.878673
     22          1           0        1.850134   -1.723286   -0.698037
     23          1           0       -3.664978    1.859424    1.304144
     24          1           0       -2.976331    0.390649    1.980559
     25          1           0       -4.330514    0.639507   -0.746143
     26          1           0       -4.949439   -0.245436    0.648658
     27          1           0       -0.957959   -0.716864    0.786502
     28          1           0       -3.042272   -1.798225    0.561567
     29          1           0       -3.827786   -1.752739   -1.026756
     30          1           0        3.413359    1.530329    0.857079
     31          1           0        4.292827    1.516979   -0.681033
 ---------------------------------------------------------------------

 SCF Done:  E(RM062X) =  -617.506894458     A.U. after    1 cycles

 The electronic state is 1-A.
 Alpha  occ. eigenvalues --  -19.63286 -19.63242 -19.62929 -10.63303 -10.58622
 Alpha  occ. eigenvalues --  -10.57659 -10.57645 -10.57598 -10.52556 -10.52517
 Alpha  occ. eigenvalues --  -10.52407 -10.52282 -10.52264  -1.19925  -1.16185
 Alpha  occ. eigenvalues --   -1.13796  -0.90326  -0.89701  -0.86140  -0.84566
 Alpha  occ. eigenvalues --   -0.74418  -0.73181  -0.72643  -0.69768  -0.65517
 Alpha  occ. eigenvalues --   -0.64850  -0.59909  -0.57958  -0.55229  -0.55095
 Alpha  occ. eigenvalues --   -0.54350  -0.52668  -0.52084  -0.50933  -0.49730
 Alpha  occ. eigenvalues --   -0.48410  -0.47111  -0.45971  -0.45343  -0.44618
 Alpha  occ. eigenvalues --   -0.42720  -0.41524  -0.40186  -0.39870  -0.39193
 Alpha  occ. eigenvalues --   -0.38735  -0.37385  -0.36945  -0.34614  -0.33239
 Alpha  occ. eigenvalues --   -0.31689
 Alpha virt. eigenvalues --    0.00484   0.01299   0.01404   0.01488   0.02758
 Alpha virt. eigenvalues --    0.02810   0.02998   0.04030   0.04167   0.04703
 Alpha virt. eigenvalues --    0.05217   0.05477   0.05805   0.06239   0.07365

 Mulliken charges:
               1
     1  C   -0.159604
     2  C   -0.377728
     3  C   -0.190222
     4  C   -0.341479
     5  C   -0.060427
     6  O   -0.405404
     7  C   -0.403236
     8  O   -0.368438
     9  C   -0.341737
    10  C   -0.045663
    11  C   -0.110909
    12  C   -0.270816
    13  O   -0.394403
    14  H    0.196698
    15  H    0.167058
    16  H    0.219589
    17  H    0.168522
    18  H    0.212841
    19  H    0.155624
    20  H    0.266837
    21  H    0.158463
    22  H    0.203285
    23  H    0.174173
    24  H    0.181994
    25  H    0.165263
    26  H    0.182475
    27  H    0.265730
    28  H    0.150747
    29  H    0.215493
    30  H    0.161620
    31  H    0.223655
 Sum of Mulliken charges =  -0.00000

 Dipole moment (field-independent basis, Debye):
    X=             -2.5512    Y=              1.3091    Z=              4.9316  Tot=              5.7047
 Quadrupole moment (field-independent basis, Debye-Ang):
   XX=            -82.3445   YY=            -75.7262   ZZ=            -82.6719
   XY=              4.4179   XZ=             -2.5820   YZ=             -2.7687

  Exact polarizability: 186.078   3.767 172.630   0.143  -1.790 169.323
 Approx polarizability: 147.473   2.045 141.974  -0.412  -1.148 143.088

                      1                      2                      3
                      A                      A                      A
 Frequencies --     33.4390                49.5261                74.2571
 Red. masses --      3.9206                 3.2326                 3.8978
 Frc consts  --      0.0026                 0.0047                 0.0127
 IR Inten    --      0.0567                 0.3493                 0.5428

                      4                      5                      6
                      A                      A                      A
 Frequencies --    154.0231               201.9307               244.0837
 Red. masses --      3.3362                 4.0797                 1.8076
 Frc consts  --      0.0466                 0.0980                 0.0634
 IR Inten    --      5.1879                 4.6980                 0.3946

                      7                      8                      9
                      A                      A                      A
 Frequencies --    247.5477               273.7266               336.3989
 Red. masses --      2.1701                 4.4286                 1.9661
 Frc consts  --      0.0784                 0.1955                 0.1311
 IR Inten    --      8.7979                 3.2488                 5.1315

                     10                     11                     12
                      A                      A                      A
 Frequencies --    360.5567               385.1218               441.1687
 Red. masses --      2.8241                 3.4776                 2.3273
 Frc consts  --      0.2163                 0.3039                 0.2669
 IR Inten    --     12.0304                 7.1329                 1.1703

                     13                     14                     15
                      A                      A                      A
 Frequencies --    454.2327               470.3683               493.2590
 Red. masses --      3.3140                 3.2092                 3.1426
 Frc consts  --      0.4029                 0.4183                 0.4505
 IR Inten    --      3.6732                 6.5343                 2.6016

                     16                     17                     18
                      A                      A                      A
 Frequencies --    513.9456               548.9051               584.4896
 Red. masses --      2.8878                 2.6351                 1.8120
 Frc consts  --      0.4494                 0.4678                 0.3647
 IR Inten    --      6.2163                13.0424                 7.7698

                     19                     20                     21
                      A                      A                      A
 Frequencies --    670.6751               831.6141               842.3010
 Red. masses --      2.6693                 1.4942                 1.7656
 Frc consts  --      0.7074                 0.6088                 0.7380
 IR Inten    --     26.0642                 2.2481                 1.5418

                     22                     23                     24
                      A                      A                      A
 Frequencies --    844.1855               858.9849               881.0497
 Red. masses --      2.7105                 1.8006                 2.0806
 Frc consts  --      1.1381                 0.7828                 0.9516
 IR Inten    --     18.3600                13.8537                12.6201

                     25                     26                     27
                      A                      A                      A
 Frequencies --    902.2715               935.3108               948.9953
 Red. masses --      2.4375                 1.8110                 2.3182
 Frc consts  --      1.1691                 0.9334                 1.2301
 IR Inten    --     33.8568                 6.5871                24.0000

                     28                     29                     30
                      A                      A                      A
 Frequencies --    961.9031               996.3609              1004.3828
 Red. masses --      2.0236                 1.7182                 1.4602
 Frc consts  --      1.1032                 1.0050                 0.8679
 IR Inten    --      0.4057                29.5392                18.6634

                     31                     32                     33
                      A                      A                      A
 Frequencies --   1018.6910              1035.8723              1068.6417
 Red. masses --      2.0299                 2.1665                 1.5212
 Frc consts  --      1.2411                 1.3697                 1.0235
 IR Inten    --     30.7627                36.2820                32.2250

                     34                     35                     36
                      A                      A                      A
 Frequencies --   1090.7486              1117.6456              1131.8134
 Red. masses --      2.9115                 3.2788                 3.2162
 Frc consts  --      2.0409                 2.4131                 2.4274
 IR Inten    --    139.8456                40.4594                56.2164

                     37                     38                     39
                      A                      A                      A
 Frequencies --   1157.9916              1167.3224              1174.5026
 Red. masses --      2.3625                 2.8702                 1.9976
 Frc consts  --      1.8665                 2.3043                 1.6236
 IR Inten    --     47.2621                26.1353               109.4291

                     40                     41                     42
                      A                      A                      A
 Frequencies --   1185.6217              1196.6202              1207.1997
 Red. masses --      2.0351                 1.5559                 1.4562
 Frc consts  --      1.6855                 1.3127                 1.2503
 IR Inten    --     78.5246                57.0102                31.7748

                     43                     44                     45
                      A                      A                      A
 Frequencies --   1248.3807              1262.1451              1272.5112
 Red. masses --      3.1453                 1.6993                 1.3074
 Frc consts  --      2.8881                 1.5949                 1.2474
 IR Inten    --    354.4236               111.4700                17.3620

                     46                     47                     48
                      A                      A                      A
 Frequencies --   1279.1805              1291.3450              1325.6597
 Red. masses --      1.2421                 1.2930                 1.4173
 Frc consts  --      1.1975                 1.2703                 1.4675
 IR Inten    --     21.4029                 0.1809                11.6645

                     49                     50                     51
                      A                      A                      A
 Frequencies --   1335.4284              1339.0965              1353.0035
 Red. masses --      1.4121                 1.3221                 1.2978
 Frc consts  --      1.4837                 1.3969                 1.3998
 IR Inten    --     59.7620                 9.0509                 0.2647

                     52                     53                     54
                      A                      A                      A
 Frequencies --   1366.5652              1367.5831              1387.4235
 Red. masses --      1.4001                 1.2628                 1.4924
 Frc consts  --      1.5406                 1.3915                 1.6926
 IR Inten    --      8.9623                15.3609                 1.3751

                     55                     56                     57
                      A                      A                      A
 Frequencies --   1390.3077              1399.8801              1403.8406
 Red. masses --      1.3584                 1.3201                 1.4616
 Frc consts  --      1.5470                 1.5242                 1.6971
 IR Inten    --      8.9275                50.9638                18.1652

                     58                     59                     60
                      A                      A                      A
 Frequencies --   1418.0977              1430.6714              1436.7968
 Red. masses --      1.4329                 1.3398                 1.5122
 Frc consts  --      1.6977                 1.6158                 1.8393
 IR Inten    --     95.8333                 8.4733                35.9006

                     61                     62                     63
                      A                      A                      A
 Frequencies --   1452.8324              1467.5401              1471.9121
 Red. masses --      1.3200                 1.1014                 1.1183
 Frc consts  --      1.6415                 1.3975                 1.4274
 IR Inten    --     34.0035                 3.7753                 1.8499

                     64                     65                     66
                      A                      A                      A
 Frequencies --   1473.7555              1482.0970              1489.4458
 Red. masses --      1.1491                 1.1339                 1.1353
 Frc consts  --      1.4705                 1.4675                 1.4840
 IR Inten    --     22.9779                 7.8744                35.3315

                     67                     68                     69
                      A                      A                      A
 Frequencies --   1500.8302              1507.3290              1510.0125
 Red. masses --      1.0826                 1.1109                 1.1011
 Frc consts  --      1.4367                 1.4871                 1.4793
 IR Inten    --      3.0474                11.5576                 8.5077

                     70                     71                     72
                      A                      A                      A
 Frequencies --   3023.0500              3037.1810              3038.6252
 Red. masses --      1.0832                 1.0700                 1.0701
 Frc consts  --      5.8322                 5.8151                 5.8217
 IR Inten    --     54.8521                44.1714                82.7005

                     73                     74                     75
                      A                      A                      A
 Frequencies --   3039.2488              3046.5755              3060.1931
 Red. masses --      1.0700                 1.0834                 1.0683
 Frc consts  --      5.8233                 5.9247                 5.8943
 IR Inten    --     67.6525                43.6165                25.5254

                     76                     77                     78
                      A                      A                      A
 Frequencies --   3069.5286              3070.7550              3071.2071
 Red. masses --      1.0615                 1.0608                 1.0609
 Frc consts  --      5.8929                 5.8934                 5.8958
 IR Inten    --     26.8822                44.6304                29.8144

                     79                     80                     81
                      A                      A                      A
 Frequencies --   3074.5384              3118.0891              3121.0118
 Red. masses --      1.0617                 1.0967                 1.1018
 Frc consts  --      5.9133                 6.2824                 6.3231
 IR Inten    --     49.7362                38.8336                51.9150

                     82                     83                     84
                      A                      A                      A
 Frequencies --   3124.4714              3125.4146              3127.1070
 Red. masses --      1.1043                 1.1034                 1.1035
 Frc consts  --      6.3517                 6.3503                 6.3576
 IR Inten    --     25.1554                74.3839                50.3590

                     85                     86                     87
                      A                      A                      A
 Frequencies --   3142.1271              3143.6145              3143.9328
 Red. masses --      1.0956                 1.0963                 1.0963
 Frc consts  --      6.3730                 6.3831                 6.3846
 IR Inten    --     39.1011                39.7705                33.7683

 - Thermochemistry -
 -------------------
 Temperature   298.150 Kelvin.  Pressure   1.00000 Atm.
 Atom     1 has atomic number  6 and mass  12.00000

 Molecular mass:   186.12559 amu.
 Principal axes and moments of inertia in atomic units:
                           1         2         3
     Eigenvalues --   833.624525151.676005383.15748
           X            0.99999   0.00094  -0.00433
           Y           -0.00108   0.99950  -0.03168
           Z            0.00430   0.03169   0.99949
 This molecule is an asymmetric top.
 Rotational symmetry number  1.
 Warning -- assumption of classical behavior for rotation
           may cause significant error
 Rotational temperatures (Kelvin)      0.10390     0.01681     0.01609
 Rotational constants (GHZ):           2.16493     0.35032     0.33526
 Zero-point vibrational energy     737725.2 (Joules/Mol)
                                  176.32056 (Kcal/Mol)
 Warning -- explicit consideration of  18 degrees of freedom as
           vibrations may cause significant error
 Vibrational temperatures:     48.11    71.26   106.84   221.60   290.53
          (Kelvin)            351.18   356.17   393.83   484.00   518.76
                              554.10   634.74   653.54   676.76   709.69
                              739.45   789.75   840.95   964.95  1196.51
                             1211.88  1214.59  1235.89  1267.63  1298.17
                             1345.70  1365.39  1383.96  1433.54  1445.08
                             1465.67  1490.39  1537.54  1569.34  1608.04
                             1628.43  1666.09  1679.52  1689.85  1705.85
                             1721.67  1736.89  1796.14  1815.95  1830.86
                             1840.46  1857.96  1907.33  1921.38  1926.66
                             1946.67  1966.18  1967.65  1996.19  2000.34
                             2014.12  2019.81  2040.33  2058.42  2067.23
                             2090.30  2111.46  2117.75  2120.41  2132.41
                             2142.98  2159.36  2168.71  2172.57  4349.49
                             4369.83  4371.90  4372.80  4383.34  4402.94
                             4416.37  4418.13  4418.78  4423.58  4486.23
                             4490.44  4495.42  4496.77  4499.21  4520.82
                             4522.96  4523.42

 Zero-point correction=                           0.280985 (Hartree/Particle)
 Thermal correction to Energy=                    0.292774
 Thermal correction to Enthalpy=                  0.293718
 Thermal correction to Gibbs Free Energy=         0.242164
 Sum of electronic and zero-point Energies=           -617.225910
 Sum of electronic and thermal Energies=              -617.214121
 Sum of electronic and thermal Enthalpies=            -617.213176
 Sum of electronic and thermal Free Energies=         -617.264731

                     E (Thermal)             CV                S
                      KCal/Mol        Cal/Mol-Kelvin    Cal/Mol-Kelvin
 Total                  183.718             46.705            108.505
 Electronic               0.000              0.000              0.000
 Translational            0.889              2.981             41.570
 Rotational               0.889              2.981             31.514
 Vibrational            181.941             40.743             35.421
 Vibration     1          0.594              1.983              5.614
 Vibration     2          0.595              1.978              4.836
 Vibration     3          0.599              1.966              4.037
 Vibration     4          0.620              1.898              2.622
 Vibration     5          0.639              1.837              2.115
 Vibration     6          0.659              1.773              1.773
 Vibration     7          0.661              1.767              1.748
 Vibration     8          0.676              1.722              1.573
 Vibration     9          0.717              1.603              1.229
 Vibration    10          0.735              1.554              1.120
 Vibration    11          0.754              1.502              1.019
 Vibration    12          0.801              1.380              0.823
 Vibration    13          0.813              1.352              0.783
 Vibration    14          0.827              1.316              0.737
 Vibration    15          0.849              1.265              0.675
 Vibration    16          0.869              1.219              0.624
 Vibration    17          0.904              1.142              0.546
 Vibration    18          0.941              1.065              0.477

 Optimization completed.
    -- Stationary point found.
 Normal termination of Gaussian 16 at Sat Mar  9 11:15:07 2019.
