 Gaussian 16, Revision B.01,
 Gaussian 16:  ES64L-G16RevB.01 20-Dec-2017

 ----------------------------------------------------------------------
 #M062X/6-311++G(2d,2p) opt=ModRedundant freq=noraman SCRF=(SMD,solvent
 =water)
 ----------------------------------------------------------------------

 --------------------------------
 4c1_b1_e3_4c1_PHI.inp_extract_19
 --------------------------------
 Symbolic Z-matrix:
 Charge =  0 Multiplicity = 1

 SCF Done:  E(RM062X) =  -617.504414157     A.U. after   12 cycles
 SCF Done:  E(RM062X) =  -617.505960425     A.U. after   10 cycles
 SCF Done:  E(RM062X) =  -617.506068107     A.U. after    9 cycles
 SCF Done:  E(RM062X) =  -617.506089793     A.U. after    8 cycles
 SCF Done:  E(RM062X) =  -617.506097771     A.U. after    8 cycles
 SCF Done:  E(RM062X) =  -617.506107183     A.U. after    9 cycles
 SCF Done:  E(RM062X) =  -617.506111549     A.U. after    8 cycles
 SCF Done:  E(RM062X) =  -617.506114086     A.U. after    8 cycles
 SCF Done:  E(RM062X) =  -617.506115125     A.U. after    8 cycles
 Optimization completed.
    -- Stationary point found.
 Normal termination of Gaussian 16 at Sat Mar  9 10:11:20 2019.

 ----------------------------------------------------------------------
 #N Geom=AllCheck Guess=TCheck SCRF=Check GenChk RM062X/6-311++G(2d,2p)
  Freq
 ----------------------------------------------------------------------

 Structure from the checkpoint file:  "4c1_b1_e3_4c1_PHI.inp_extract_19.chk"
 --------------------------------
 4c1_b1_e3_4c1_PHI.inp_extract_19
 --------------------------------
 Charge =  0 Multiplicity = 1

                         Standard orientation:
 ---------------------------------------------------------------------
 Center     Atomic      Atomic             Coordinates (Angstroms)
 Number     Number       Type             X           Y           Z
 ---------------------------------------------------------------------
      1          6           0        2.180487    0.852006   -1.004099
      2          6           0        3.089315   -0.885353    1.070318
      3          6           0       -1.723278    1.111258    0.482247
      4          6           0        1.166414    0.179171   -0.096893
      5          6           0        1.736569   -1.135914    0.420709
      6          8           0       -2.118773   -0.721963   -1.027714
      7          6           0       -3.079442    0.871955    1.147124
      8          8           0        3.997099   -0.273871    0.159871
      9          6           0       -4.029987    0.198987    0.161099
     10          6           0       -1.198507   -0.192199   -0.095789
     11          6           0       -3.372739   -1.040289   -0.417842
     12          6           0        3.511308    0.989687   -0.280949
     13          8           0       -0.025894   -0.024066   -0.858239
     14          1           0        2.314069    0.242651   -1.900928
     15          1           0        1.824025    1.836857   -1.307240
     16          1           0        3.548853   -1.818742    1.387187
     17          1           0        2.974022   -0.239465    1.948128
     18          1           0       -1.822191    1.821262   -0.342416
     19          1           0       -1.010252    1.515800    1.199485
     20          1           0        0.956223    0.839654    0.749184
     21          1           0        1.070225   -1.598428    1.149118
     22          1           0        1.858150   -1.822335   -0.420175
     23          1           0       -3.492953    1.812998    1.507397
     24          1           0       -2.943961    0.223595    2.017075
     25          1           0       -4.270555    0.886427   -0.652936
     26          1           0       -4.964348   -0.085682    0.645674
     27          1           0       -1.033185   -0.929706    0.701168
     28          1           0       -3.206290   -1.784819    0.368282
     29          1           0       -3.977689   -1.492483   -1.200169
     30          1           0        3.404333    1.653171    0.584573
     31          1           0        4.271235    1.402579   -0.940298
 ---------------------------------------------------------------------

 SCF Done:  E(RM062X) =  -617.506115125     A.U. after    1 cycles

 The electronic state is 1-A.
 Alpha  occ. eigenvalues --  -19.63319 -19.63276 -19.62914 -10.63384 -10.58584
 Alpha  occ. eigenvalues --  -10.57640 -10.57633 -10.57599 -10.52550 -10.52546
 Alpha  occ. eigenvalues --  -10.52400 -10.52310 -10.52248  -1.19983  -1.16187
 Alpha  occ. eigenvalues --   -1.13761  -0.90255  -0.89738  -0.86129  -0.84612
 Alpha  occ. eigenvalues --   -0.74634  -0.73250  -0.72523  -0.69634  -0.65196
 Alpha  occ. eigenvalues --   -0.65074  -0.60001  -0.57847  -0.55621  -0.54978
 Alpha  occ. eigenvalues --   -0.54337  -0.52697  -0.51857  -0.50875  -0.49820
 Alpha  occ. eigenvalues --   -0.48589  -0.47325  -0.45778  -0.45376  -0.44389
 Alpha  occ. eigenvalues --   -0.42970  -0.41498  -0.40349  -0.39842  -0.39112
 Alpha  occ. eigenvalues --   -0.38692  -0.37486  -0.36735  -0.34586  -0.33189
 Alpha  occ. eigenvalues --   -0.31722
 Alpha virt. eigenvalues --    0.00473   0.01295   0.01396   0.01508   0.02770
 Alpha virt. eigenvalues --    0.02820   0.02995   0.04045   0.04173   0.04735
 Alpha virt. eigenvalues --    0.05223   0.05470   0.05894   0.06167   0.07400

 Mulliken charges:
               1
     1  C   -0.173331
     2  C   -0.375917
     3  C   -0.183697
     4  C   -0.299044
     5  C   -0.069850
     6  O   -0.406073
     7  C   -0.439879
     8  O   -0.368927
     9  C   -0.340905
    10  C   -0.027580
    11  C   -0.125291
    12  C   -0.275832
    13  O   -0.397565
    14  H    0.195034
    15  H    0.168756
    16  H    0.220132
    17  H    0.169292
    18  H    0.219225
    19  H    0.163690
    20  H    0.262639
    21  H    0.158619
    22  H    0.202434
    23  H    0.170306
    24  H    0.185990
    25  H    0.164401
    26  H    0.183677
    27  H    0.268642
    28  H    0.150393
    29  H    0.217687
    30  H    0.162059
    31  H    0.220914
 Sum of Mulliken charges =  -0.00000

 Dipole moment (field-independent basis, Debye):
    X=             -2.5309    Y=              1.4747    Z=              4.8889  Tot=              5.6993
 Quadrupole moment (field-independent basis, Debye-Ang):
   XX=            -82.3860   YY=            -76.0715   ZZ=            -82.4622
   XY=              4.5951   XZ=             -3.2553   YZ=             -3.1448

  Exact polarizability: 186.400   3.461 170.924   0.141  -2.114 170.160
 Approx polarizability: 147.744   1.744 141.390  -0.357  -1.346 143.368

 ******    1 imaginary frequencies (negative Signs) ******

                      1                      2                      3
                      A                      A                      A
 Frequencies --    -18.2858                49.9384                77.3098
 Red. masses --      2.9375                 4.1639                 4.0508
 Frc consts  --      0.0006                 0.0061                 0.0143
 IR Inten    --      0.1926                 0.5484                 0.4551

                      4                      5                      6
                      A                      A                      A
 Frequencies --    161.6298               195.1361               238.2013
 Red. masses --      3.2511                 3.9203                 1.8176
 Frc consts  --      0.0500                 0.0880                 0.0608
 IR Inten    --      3.4921                 7.1421                 1.9304

                      7                      8                      9
                      A                      A                      A
 Frequencies --    246.5513               270.5214               339.3138
 Red. masses --      2.1570                 4.7515                 2.0266
 Frc consts  --      0.0773                 0.2049                 0.1375
 IR Inten    --      6.3061                 2.7015                 5.7647

                     10                     11                     12
                      A                      A                      A
 Frequencies --    353.7415               377.4454               440.5320
 Red. masses --      3.4031                 2.5996                 2.4630
 Frc consts  --      0.2509                 0.2182                 0.2816
 IR Inten    --     12.1427                 7.8159                 1.3387

                     13                     14                     15
                      A                      A                      A
 Frequencies --    456.1108               473.7014               488.6296
 Red. masses --      3.2331                 2.9868                 3.0734
 Frc consts  --      0.3963                 0.3949                 0.4323
 IR Inten    --      1.3281                 7.5232                 1.8016

                     16                     17                     18
                      A                      A                      A
 Frequencies --    516.2113               546.1045               582.9722
 Red. masses --      3.2824                 2.4867                 1.8233
 Frc consts  --      0.5153                 0.4369                 0.3651
 IR Inten    --      7.8212                17.2093                 5.1232

                     19                     20                     21
                      A                      A                      A
 Frequencies --    671.7866               829.9854               841.9681
 Red. masses --      2.7127                 1.4974                 1.9833
 Frc consts  --      0.7213                 0.6078                 0.8284
 IR Inten    --     26.1624                 2.4324                 4.2431

                     22                     23                     24
                      A                      A                      A
 Frequencies --    844.9741               856.9800               880.7056
 Red. masses --      2.3812                 1.7137                 2.2140
 Frc consts  --      1.0017                 0.7415                 1.0118
 IR Inten    --     16.6114                16.2891                10.1589

                     25                     26                     27
                      A                      A                      A
 Frequencies --    902.1490               934.2955               947.4831
 Red. masses --      2.4226                 1.7975                 2.3545
 Frc consts  --      1.1617                 0.9245                 1.2454
 IR Inten    --     33.2175                 4.7962                22.5229

                     28                     29                     30
                      A                      A                      A
 Frequencies --    960.3863               995.3946              1003.3688
 Red. masses --      1.9526                 1.7695                 1.4649
 Frc consts  --      1.0611                 1.0330                 0.8689
 IR Inten    --      0.9402                26.8868                16.6258

                     31                     32                     33
                      A                      A                      A
 Frequencies --   1018.0657              1037.0530              1069.7333
 Red. masses --      2.0068                 2.1783                 1.5291
 Frc consts  --      1.2255                 1.3803                 1.0309
 IR Inten    --     33.1682                34.6240                31.5082

                     34                     35                     36
                      A                      A                      A
 Frequencies --   1088.7349              1118.9782              1131.2189
 Red. masses --      2.8577                 3.1353                 3.1711
 Frc consts  --      1.9958                 2.3130                 2.3908
 IR Inten    --    121.1027                46.3085                45.7586

                     37                     38                     39
                      A                      A                      A
 Frequencies --   1158.8685              1164.5448              1173.8459
 Red. masses --      2.3544                 2.8289                 1.9619
 Frc consts  --      1.8630                 2.2603                 1.5927
 IR Inten    --     60.4042                32.0134                83.7660

                     40                     41                     42
                      A                      A                      A
 Frequencies --   1183.4147              1196.0598              1205.3347
 Red. masses --      2.0174                 1.6432                 1.4340
 Frc consts  --      1.6646                 1.3850                 1.2275
 IR Inten    --     75.1741                69.8958                22.6968

                     43                     44                     45
                      A                      A                      A
 Frequencies --   1249.4090              1261.1039              1271.3878
 Red. masses --      2.9966                 1.6833                 1.3064
 Frc consts  --      2.7560                 1.5773                 1.2441
 IR Inten    --    371.4713                96.1438                19.5313

                     46                     47                     48
                      A                      A                      A
 Frequencies --   1277.4879              1290.9079              1325.1255
 Red. masses --      1.2396                 1.3023                 1.4072
 Frc consts  --      1.1919                 1.2786                 1.4559
 IR Inten    --     16.9053                 3.4242                 7.8049

                     49                     50                     51
                      A                      A                      A
 Frequencies --   1333.7110              1339.4967              1348.8349
 Red. masses --      1.4059                 1.3513                 1.2958
 Frc consts  --      1.4734                 1.4285                 1.3890
 IR Inten    --     61.0587                14.9327                 0.3368

                     52                     53                     54
                      A                      A                      A
 Frequencies --   1364.8263              1367.4330              1386.1919
 Red. masses --      1.3721                 1.2725                 1.3933
 Frc consts  --      1.5059                 1.4019                 1.5774
 IR Inten    --      6.7893                11.9042                 3.0531

                     55                     56                     57
                      A                      A                      A
 Frequencies --   1388.7455              1396.7673              1401.5804
 Red. masses --      1.4616                 1.3490                 1.4533
 Frc consts  --      1.6608                 1.5506                 1.6820
 IR Inten    --      2.3706                73.4764                18.4605

                     58                     59                     60
                      A                      A                      A
 Frequencies --   1418.7174              1429.8652              1436.7774
 Red. masses --      1.4168                 1.3260                 1.5637
 Frc consts  --      1.6802                 1.5972                 1.9018
 IR Inten    --     99.0397                 6.0682                45.1691

                     61                     62                     63
                      A                      A                      A
 Frequencies --   1442.4868              1467.9430              1471.0079
 Red. masses --      1.4191                 1.1008                 1.1051
 Frc consts  --      1.7397                 1.3975                 1.4089
 IR Inten    --     29.0500                 5.0144                 3.4627

                     64                     65                     66
                      A                      A                      A
 Frequencies --   1474.9678              1482.3981              1490.0670
 Red. masses --      1.1252                 1.1327                 1.1334
 Frc consts  --      1.4422                 1.4665                 1.4827
 IR Inten    --     12.2347                 8.7538                32.5025

                     67                     68                     69
                      A                      A                      A
 Frequencies --   1498.4016              1506.9282              1507.5710
 Red. masses --      1.0830                 1.1091                 1.1023
 Frc consts  --      1.4327                 1.4839                 1.4761
 IR Inten    --      3.3824                13.0678                 6.5457

                     70                     71                     72
                      A                      A                      A
 Frequencies --   3016.3135              3033.8450              3034.4780
 Red. masses --      1.0828                 1.0702                 1.0705
 Frc consts  --      5.8044                 5.8039                 5.8079
 IR Inten    --     65.9429                30.0632               109.3731

                     73                     74                     75
                      A                      A                      A
 Frequencies --   3039.3364              3059.0013              3061.3372
 Red. masses --      1.0701                 1.0685                 1.0798
 Frc consts  --      5.8242                 5.8911                 5.9623
 IR Inten    --     71.4510                25.3389                12.0722

                     76                     77                     78
                      A                      A                      A
 Frequencies --   3069.7537              3071.1943              3072.5368
 Red. masses --      1.0618                 1.0612                 1.0626
 Frc consts  --      5.8951                 5.8972                 5.9102
 IR Inten    --     37.3826                18.3095                47.5137

                     79                     80                     81
                      A                      A                      A
 Frequencies --   3076.3019              3118.2188              3121.5155
 Red. masses --      1.0654                 1.0967                 1.1023
 Frc consts  --      5.9407                 6.2827                 6.3283
 IR Inten    --     58.5056                38.9939                63.9121

                     82                     83                     84
                      A                      A                      A
 Frequencies --   3125.9596              3127.3780              3134.2299
 Red. masses --      1.1027                 1.1034                 1.1007
 Frc consts  --      6.3484                 6.3584                 6.3708
 IR Inten    --     41.5816                45.4532                53.9192

                     85                     86                     87
                      A                      A                      A
 Frequencies --   3141.5107              3143.1913              3143.5386
 Red. masses --      1.0951                 1.0963                 1.0957
 Frc consts  --      6.3676                 6.3813                 6.3795
 IR Inten    --     40.3568                38.4103                33.5784

 - Thermochemistry -
 -------------------
 Temperature   298.150 Kelvin.  Pressure   1.00000 Atm.
 Atom     1 has atomic number  6 and mass  12.00000

 Molecular mass:   186.12559 amu.
 Principal axes and moments of inertia in atomic units:
                           1         2         3
     Eigenvalues --   827.839095226.258605310.47495
           X            0.99999   0.00064  -0.00513
           Y           -0.00114   0.99504  -0.09943
           Z            0.00504   0.09943   0.99503
 This molecule is an asymmetric top.
 Rotational symmetry number  1.
 Warning -- assumption of classical behavior for rotation
           may cause significant error
 Rotational temperatures (Kelvin)      0.10463     0.01657     0.01631
 Rotational constants (GHZ):           2.18006     0.34532     0.33985
    1 imaginary frequencies ignored.
 Zero-point vibrational energy     737193.7 (Joules/Mol)
                                  176.19352 (Kcal/Mol)
 Warning -- explicit consideration of  17 degrees of freedom as
           vibrations may cause significant error
 Vibrational temperatures:     71.85   111.23   232.55   280.76   342.72
          (Kelvin)            354.73   389.22   488.20   508.96   543.06
                              633.83   656.24   681.55   703.03   742.71
                              785.72   838.77   966.55  1194.16  1211.40
                             1215.73  1233.00  1267.14  1297.99  1344.24
                             1363.22  1381.78  1432.15  1443.62  1464.77
                             1492.09  1539.11  1566.45  1609.96  1627.57
                             1667.35  1675.52  1688.90  1702.67  1720.86
                             1734.21  1797.62  1814.45  1829.24  1838.02
                             1857.33  1906.56  1918.91  1927.24  1940.67
                             1963.68  1967.43  1994.42  1998.09  2009.64
                             2016.56  2041.22  2057.26  2067.20  2075.42
                             2112.04  2116.45  2122.15  2132.84  2143.87
                             2155.87  2168.13  2169.06  4339.80  4365.03
                             4365.94  4372.93  4401.22  4404.58  4416.69
                             4418.76  4420.70  4426.11  4486.42  4491.16
                             4497.56  4499.60  4509.46  4519.93  4522.35
                             4522.85

 Zero-point correction=                           0.280782 (Hartree/Particle)
 Thermal correction to Energy=                    0.291722
 Thermal correction to Enthalpy=                  0.292666
 Thermal correction to Gibbs Free Energy=         0.243781
 Sum of electronic and zero-point Energies=           -617.225333
 Sum of electronic and thermal Energies=              -617.214393
 Sum of electronic and thermal Enthalpies=            -617.213449
 Sum of electronic and thermal Free Energies=         -617.262334

                     E (Thermal)             CV                S
                      KCal/Mol        Cal/Mol-Kelvin    Cal/Mol-Kelvin
 Total                  183.058             44.794            102.888
 Electronic               0.000              0.000              0.000
 Translational            0.889              2.981             41.570
 Rotational               0.889              2.981             31.508
 Vibrational            181.281             38.832             29.810
 Vibration     1          0.595              1.978              4.820
 Vibration     2          0.599              1.964              3.958
 Vibration     3          0.622              1.889              2.531
 Vibration     4          0.636              1.847              2.178
 Vibration     5          0.656              1.782              1.816
 Vibration     6          0.661              1.768              1.755
 Vibration     7          0.674              1.728              1.593
 Vibration     8          0.719              1.597              1.215
 Vibration     9          0.730              1.568              1.149
 Vibration    10          0.748              1.518              1.049
 Vibration    11          0.800              1.382              0.825
 Vibration    12          0.814              1.347              0.778
 Vibration    13          0.830              1.308              0.727
 Vibration    14          0.845              1.275              0.687
 Vibration    15          0.871              1.214              0.619
 Vibration    16          0.901              1.148              0.552
 Vibration    17          0.940              1.068              0.480

 Optimization completed.
    -- Stationary point found.
 Normal termination of Gaussian 16 at Sat Mar  9 11:13:45 2019.
