 Gaussian 16, Revision B.01,
 Gaussian 16:  ES64L-G16RevB.01 20-Dec-2017

 ----------------------------------------------------------------------
 #M062X/6-311++G(2d,2p) opt=ModRedundant freq=noraman SCRF=(SMD,solvent
 =water)
 ----------------------------------------------------------------------

 -------------------------------
 4c1_b1_e3_4c1_PHI.inp_extract_3
 -------------------------------
 Symbolic Z-matrix:
 Charge =  0 Multiplicity = 1

 SCF Done:  E(RM062X) =  -617.506434006     A.U. after   12 cycles
 SCF Done:  E(RM062X) =  -617.508163195     A.U. after   10 cycles
 SCF Done:  E(RM062X) =  -617.508336912     A.U. after   10 cycles
 SCF Done:  E(RM062X) =  -617.508374988     A.U. after    9 cycles
 SCF Done:  E(RM062X) =  -617.508377788     A.U. after    7 cycles
 SCF Done:  E(RM062X) =  -617.508377938     A.U. after    6 cycles
 Optimization completed.
    -- Stationary point found.
 Normal termination of Gaussian 16 at Sat Mar  9 05:43:44 2019.

 ----------------------------------------------------------------------
 #N Geom=AllCheck Guess=TCheck SCRF=Check GenChk RM062X/6-311++G(2d,2p)
  Freq
 ----------------------------------------------------------------------

 Structure from the checkpoint file:  "4c1_b1_e3_4c1_PHI.inp_extract_3.chk"
 -------------------------------
 4c1_b1_e3_4c1_PHI.inp_extract_3
 -------------------------------
 Charge =  0 Multiplicity = 1

                         Standard orientation:
 ---------------------------------------------------------------------
 Center     Atomic      Atomic             Coordinates (Angstroms)
 Number     Number       Type             X           Y           Z
 ---------------------------------------------------------------------
      1          6           0       -1.482763    0.740438    0.795930
      2          6           0       -3.563258   -0.538809   -0.691681
      3          6           0        2.376547   -1.306560    0.369379
      4          6           0       -1.128132   -0.308981   -0.249481
      5          6           0       -2.275607   -1.291838   -0.397899
      6          8           0        1.358682    0.620423   -0.684812
      7          6           0        3.673584   -0.523755    0.572824
      8          8           0       -3.851514    0.410319    0.329979
      9          6           0        3.780099    0.587131   -0.470006
     10          6           0        1.207087   -0.347673    0.337606
     11          6           0        2.516526    1.428972   -0.461609
     12          6           0       -2.815849    1.380739    0.438064
     13          8           0        0.028765   -1.073509    0.106361
     14          1           0       -1.557243    0.261036    1.775070
     15          1           0       -0.720106    1.518344    0.850305
     16          1           0       -4.411349   -1.218294   -0.733191
     17          1           0       -3.487410   -0.017655   -1.652587
     18          1           0        2.398191   -1.842257   -0.582366
     19          1           0        2.219646   -2.030658    1.168642
     20          1           0       -0.952500    0.182821   -1.208565
     21          1           0       -2.070512   -1.996355   -1.204584
     22          1           0       -2.387954   -1.854785    0.531325
     23          1           0        4.530592   -1.193368    0.516235
     24          1           0        3.673523   -0.080611    1.572099
     25          1           0        3.909344    0.153664   -1.464283
     26          1           0        4.638266    1.229912   -0.272059
     27          1           0        1.131782    0.190599    1.293445
     28          1           0        2.408324    1.944289    0.499541
     29          1           0        2.520319    2.173160   -1.254597
     30          1           0       -2.731219    1.920450   -0.511994
     31          1           0       -3.128549    2.083861    1.206577
 ---------------------------------------------------------------------

 SCF Done:  E(RM062X) =  -617.508377938     A.U. after    1 cycles

 The electronic state is 1-A.
 Alpha  occ. eigenvalues --  -19.63411 -19.63131 -19.62893 -10.63203 -10.58322
 Alpha  occ. eigenvalues --  -10.57633 -10.57610 -10.57606 -10.52556 -10.52483
 Alpha  occ. eigenvalues --  -10.52444 -10.52424 -10.52280  -1.19965  -1.16162
 Alpha  occ. eigenvalues --   -1.13586  -0.90812  -0.89353  -0.86139  -0.84577
 Alpha  occ. eigenvalues --   -0.75165  -0.73207  -0.71977  -0.69544  -0.65514
 Alpha  occ. eigenvalues --   -0.64560  -0.59931  -0.57616  -0.56549  -0.54339
 Alpha  occ. eigenvalues --   -0.54335  -0.52551  -0.52168  -0.50918  -0.49920
 Alpha  occ. eigenvalues --   -0.49399  -0.46412  -0.45706  -0.44396  -0.44002
 Alpha  occ. eigenvalues --   -0.43225  -0.41293  -0.40801  -0.39937  -0.39134
 Alpha  occ. eigenvalues --   -0.38370  -0.37249  -0.36925  -0.34398  -0.33297
 Alpha  occ. eigenvalues --   -0.32090
 Alpha virt. eigenvalues --    0.00490   0.01301   0.01334   0.01483   0.02722
 Alpha virt. eigenvalues --    0.02877   0.02984   0.03967   0.04074   0.04828
 Alpha virt. eigenvalues --    0.05127   0.05538   0.05817   0.05962   0.07192

 Mulliken charges:
               1
     1  C   -0.033921
     2  C   -0.296185
     3  C   -0.310243
     4  C   -0.313447
     5  C   -0.216012
     6  O   -0.374923
     7  C   -0.444257
     8  O   -0.369740
     9  C   -0.336538
    10  C    0.021740
    11  C   -0.136075
    12  C   -0.361296
    13  O   -0.386155
    14  H    0.219795
    15  H    0.190934
    16  H    0.227928
    17  H    0.159816
    18  H    0.194099
    19  H    0.184794
    20  H    0.280996
    21  H    0.182547
    22  H    0.195555
    23  H    0.205014
    24  H    0.173677
    25  H    0.164134
    26  H    0.179519
    27  H    0.254504
    28  H    0.157973
    29  H    0.197517
    30  H    0.177462
    31  H    0.210789
 Sum of Mulliken charges =  -0.00000

 Dipole moment (field-independent basis, Debye):
    X=              3.5303    Y=              1.7771    Z=              0.1949  Tot=              3.9571
 Quadrupole moment (field-independent basis, Debye-Ang):
   XX=            -80.4381   YY=            -77.6188   ZZ=            -79.0105
   XY=              3.7485   XZ=              6.8267   YZ=              1.4429

  Exact polarizability: 183.729   3.068 175.900   2.168   0.669 168.685
 Approx polarizability: 145.719   2.593 144.611   0.829   0.299 142.309

                      1                      2                      3
                      A                      A                      A
 Frequencies --     50.3954                58.5567                87.8927
 Red. masses --      3.2290                 4.1659                 3.8518
 Frc consts  --      0.0048                 0.0084                 0.0175
 IR Inten    --      0.7834                 3.1053                 1.4768

                      4                      5                      6
                      A                      A                      A
 Frequencies --    163.3933               189.0473               245.8720
 Red. masses --      3.3837                 3.7280                 1.8361
 Frc consts  --      0.0532                 0.0785                 0.0654
 IR Inten    --      4.1023                13.2944                 0.9834

                      7                      8                      9
                      A                      A                      A
 Frequencies --    250.8468               277.4733               311.7675
 Red. masses --      2.6294                 3.2700                 3.2119
 Frc consts  --      0.0975                 0.1483                 0.1839
 IR Inten    --      8.1609                 4.8048                 4.8486

                     10                     11                     12
                      A                      A                      A
 Frequencies --    361.3070               379.9055               442.1693
 Red. masses --      2.0753                 2.2653                 3.3966
 Frc consts  --      0.1596                 0.1926                 0.3913
 IR Inten    --      6.0631                 5.3782                 3.9874

                     13                     14                     15
                      A                      A                      A
 Frequencies --    457.2568               482.0155               487.9432
 Red. masses --      2.8260                 2.9841                 2.5096
 Frc consts  --      0.3481                 0.4085                 0.3520
 IR Inten    --      1.0277                 0.5564                 0.4925

                     16                     17                     18
                      A                      A                      A
 Frequencies --    524.8270               548.9775               616.7730
 Red. masses --      3.2979                 2.0656                 2.5223
 Frc consts  --      0.5352                 0.3668                 0.5653
 IR Inten    --      5.9775                10.7767                 9.6053

                     19                     20                     21
                      A                      A                      A
 Frequencies --    660.8504               831.6520               838.5780
 Red. masses --      2.8618                 1.4971                 1.8336
 Frc consts  --      0.7364                 0.6101                 0.7597
 IR Inten    --     38.9395                 1.8408                 6.0086

                     22                     23                     24
                      A                      A                      A
 Frequencies --    842.7065               861.4713               882.7432
 Red. masses --      2.5913                 1.8850                 1.9882
 Frc consts  --      1.0842                 0.8242                 0.9128
 IR Inten    --     16.1974                15.6588                12.5392

                     25                     26                     27
                      A                      A                      A
 Frequencies --    898.7030               939.0980               944.2828
 Red. masses --      2.4749                 1.9306                 2.0398
 Frc consts  --      1.1777                 1.0031                 1.0716
 IR Inten    --     26.7894                 9.3324                18.4257

                     28                     29                     30
                      A                      A                      A
 Frequencies --    959.1732               989.8817              1006.1340
 Red. masses --      2.1011                 1.8359                 1.4708
 Frc consts  --      1.1389                 1.0599                 0.8773
 IR Inten    --     13.5194                25.9898                24.9795

                     31                     32                     33
                      A                      A                      A
 Frequencies --   1012.4761              1037.3130              1062.1983
 Red. masses --      1.9880                 2.1730                 1.4753
 Frc consts  --      1.2007                 1.3776                 0.9807
 IR Inten    --     25.5269                34.4703                51.2138

                     34                     35                     36
                      A                      A                      A
 Frequencies --   1087.4233              1105.4716              1130.8225
 Red. masses --      3.0043                 3.0765                 3.1670
 Frc consts  --      2.0931                 2.2151                 2.3861
 IR Inten    --     26.1323               129.1511               119.5195

                     37                     38                     39
                      A                      A                      A
 Frequencies --   1148.7480              1158.4529              1167.5826
 Red. masses --      2.9834                 2.3628                 2.5703
 Frc consts  --      2.3196                 1.8682                 2.0645
 IR Inten    --    109.9372                29.1711                36.1336

                     40                     41                     42
                      A                      A                      A
 Frequencies --   1188.9253              1195.8923              1204.5130
 Red. masses --      1.7822                 1.4557                 1.6406
 Frc consts  --      1.4843                 1.2266                 1.4024
 IR Inten    --     54.3995                34.4071                30.0179

                     43                     44                     45
                      A                      A                      A
 Frequencies --   1245.3560              1251.6497              1274.9963
 Red. masses --      2.3724                 2.2363                 1.3790
 Frc consts  --      2.1679                 2.0641                 1.3208
 IR Inten    --    163.5214               322.2384                10.7706

                     46                     47                     48
                      A                      A                      A
 Frequencies --   1279.5440              1281.0901              1317.9952
 Red. masses --      1.2330                 1.3280                 1.2436
 Frc consts  --      1.1894                 1.2841                 1.2728
 IR Inten    --      7.4295                29.1136                42.3046

                     49                     50                     51
                      A                      A                      A
 Frequencies --   1321.3405              1342.7400              1348.8378
 Red. masses --      1.3643                 1.3351                 1.2863
 Frc consts  --      1.4034                 1.4182                 1.3789
 IR Inten    --     21.8415                11.1050                 1.4346

                     52                     53                     54
                      A                      A                      A
 Frequencies --   1360.9104              1367.9969              1384.8842
 Red. masses --      1.1723                 1.4428                 1.5163
 Frc consts  --      1.2792                 1.5908                 1.7135
 IR Inten    --      5.1953                 2.7250                 4.2618

                     55                     56                     57
                      A                      A                      A
 Frequencies --   1390.8629              1400.1712              1407.4683
 Red. masses --      1.2933                 1.3886                 1.4353
 Frc consts  --      1.4740                 1.6039                 1.6752
 IR Inten    --      4.9540                88.0047                10.9025

                     58                     59                     60
                      A                      A                      A
 Frequencies --   1409.9664              1429.7436              1431.1922
 Red. masses --      1.4476                 1.3387                 1.2859
 Frc consts  --      1.6955                 1.6123                 1.5519
 IR Inten    --     19.4941                 5.7523                26.0185

                     61                     62                     63
                      A                      A                      A
 Frequencies --   1445.0805              1467.1039              1471.4369
 Red. masses --      1.6186                 1.1003                 1.1172
 Frc consts  --      1.9915                 1.3954                 1.4252
 IR Inten    --     40.8339                 4.9961                 3.6323

                     64                     65                     66
                      A                      A                      A
 Frequencies --   1474.1461              1480.7939              1490.8613
 Red. masses --      1.1050                 1.1240                 1.1334
 Frc consts  --      1.4148                 1.4521                 1.4842
 IR Inten    --      8.9214                 7.5524                29.5465

                     67                     68                     69
                      A                      A                      A
 Frequencies --   1499.4777              1505.4384              1508.5420
 Red. masses --      1.0828                 1.1002                 1.1017
 Frc consts  --      1.4345                 1.4691                 1.4771
 IR Inten    --      3.0252                 7.7447                 8.1621

                     70                     71                     72
                      A                      A                      A
 Frequencies --   3005.1788              3035.5070              3037.7007
 Red. masses --      1.0818                 1.0702                 1.0701
 Frc consts  --      5.7562                 5.8102                 5.8177
 IR Inten    --     85.3236                61.3108                85.5965

                     73                     74                     75
                      A                      A                      A
 Frequencies --   3038.1039              3061.8945              3067.2454
 Red. masses --      1.0701                 1.0685                 1.0637
 Frc consts  --      5.8196                 5.9022                 5.8959
 IR Inten    --     68.1411                23.3666                12.5212

                     76                     77                     78
                      A                      A                      A
 Frequencies --   3069.6356              3070.3441              3073.6198
 Red. masses --      1.0615                 1.0643                 1.0613
 Frc consts  --      5.8930                 5.9114                 5.9075
 IR Inten    --     41.2135                11.7447                45.7591

                     79                     80                     81
                      A                      A                      A
 Frequencies --   3080.9228              3118.7592              3121.7085
 Red. masses --      1.0775                 1.0986                 1.1029
 Frc consts  --      6.0257                 6.2960                 6.3325
 IR Inten    --     68.2416                42.7190                37.5821

                     82                     83                     84
                      A                      A                      A
 Frequencies --   3122.7779              3125.8181              3129.8939
 Red. masses --      1.1002                 1.1034                 1.1039
 Frc consts  --      6.3212                 6.3520                 6.3717
 IR Inten    --     54.6696                55.5704                50.7854

                     85                     86                     87
                      A                      A                      A
 Frequencies --   3141.4255              3143.2528              3143.4877
 Red. masses --      1.0953                 1.0961                 1.0960
 Frc consts  --      6.3684                 6.3808                 6.3812
 IR Inten    --     40.5439                44.2504                28.0422

 - Thermochemistry -
 -------------------
 Temperature   298.150 Kelvin.  Pressure   1.00000 Atm.
 Atom     1 has atomic number  6 and mass  12.00000

 Molecular mass:   186.12559 amu.
 Principal axes and moments of inertia in atomic units:
                           1         2         3
     Eigenvalues --   843.209424762.764825161.80050
           X            0.99998   0.00232   0.00614
           Y           -0.00239   0.99993   0.01166
           Z           -0.00612  -0.01167   0.99991
 This molecule is an asymmetric top.
 Rotational symmetry number  1.
 Warning -- assumption of classical behavior for rotation
           may cause significant error
 Rotational temperatures (Kelvin)      0.10272     0.01819     0.01678
 Rotational constants (GHZ):           2.14032     0.37893     0.34963
 Zero-point vibrational energy     737308.9 (Joules/Mol)
                                  176.22105 (Kcal/Mol)
 Warning -- explicit consideration of  18 degrees of freedom as
           vibrations may cause significant error
 Vibrational temperatures:     72.51    84.25   126.46   235.09   272.00
          (Kelvin)            353.75   360.91   399.22   448.56   519.84
                              546.60   636.18   657.89   693.51   702.04
                              755.11   789.86   887.40   950.82  1196.56
                             1206.53  1212.47  1239.47  1270.07  1293.03
                             1351.15  1358.61  1380.04  1424.22  1447.60
                             1456.73  1492.46  1528.27  1564.56  1590.53
                             1627.00  1652.79  1666.76  1679.89  1710.60
                             1720.62  1733.03  1791.79  1800.84  1834.44
                             1840.98  1843.20  1896.30  1901.11  1931.90
                             1940.68  1958.05  1968.24  1992.54  2001.14
                             2014.53  2025.03  2028.63  2057.08  2059.17
                             2079.15  2110.84  2117.07  2120.97  2130.53
                             2145.02  2157.41  2165.99  2170.46  4323.78
                             4367.42  4370.57  4371.15  4405.38  4413.08
                             4416.52  4417.54  4422.25  4432.76  4487.20
                             4491.44  4492.98  4497.36  4503.22  4519.81
                             4522.44  4522.78

 Zero-point correction=                           0.280826 (Hartree/Particle)
 Thermal correction to Energy=                    0.292540
 Thermal correction to Enthalpy=                  0.293484
 Thermal correction to Gibbs Free Energy=         0.242672
 Sum of electronic and zero-point Energies=           -617.227552
 Sum of electronic and thermal Energies=              -617.215838
 Sum of electronic and thermal Enthalpies=            -617.214894
 Sum of electronic and thermal Free Energies=         -617.265706

                     E (Thermal)             CV                S
                      KCal/Mol        Cal/Mol-Kelvin    Cal/Mol-Kelvin
 Total                  183.571             46.732            106.942
 Electronic               0.000              0.000              0.000
 Translational            0.889              2.981             41.570
 Rotational               0.889              2.981             31.406
 Vibrational            181.794             40.770             33.966
 Vibration     1          0.595              1.977              4.802
 Vibration     2          0.596              1.974              4.505
 Vibration     3          0.601              1.958              3.706
 Vibration     4          0.623              1.887              2.510
 Vibration     5          0.633              1.855              2.237
 Vibration     6          0.660              1.770              1.760
 Vibration     7          0.663              1.761              1.725
 Vibration     8          0.678              1.715              1.549
 Vibration     9          0.700              1.651              1.353
 Vibration    10          0.735              1.552              1.116
 Vibration    11          0.750              1.513              1.040
 Vibration    12          0.802              1.378              0.820
 Vibration    13          0.815              1.345              0.774
 Vibration    14          0.838              1.290              0.705
 Vibration    15          0.844              1.277              0.689
 Vibration    16          0.880              1.195              0.599
 Vibration    17          0.904              1.142              0.546
 Vibration    18          0.976              0.996              0.422

 Optimization completed.
    -- Stationary point found.
 Normal termination of Gaussian 16 at Sat Mar  9 06:46:19 2019.
