 Gaussian 16, Revision B.01,
 Gaussian 16:  ES64L-G16RevB.01 20-Dec-2017

 ----------------------------------------------------------------------
 #M062X/6-311++G(2d,2p) opt=ModRedundant freq=noraman SCRF=(SMD,solvent
 =water)
 ----------------------------------------------------------------------

 --------------------------------
 4c1_b1_e3_4c1_PHI.inp_extract_11
 --------------------------------
 Symbolic Z-matrix:
 Charge =  0 Multiplicity = 1

 SCF Done:  E(RM062X) =  -617.505033846     A.U. after   12 cycles
 SCF Done:  E(RM062X) =  -617.506538931     A.U. after   10 cycles
 SCF Done:  E(RM062X) =  -617.506837735     A.U. after   10 cycles
 SCF Done:  E(RM062X) =  -617.506964104     A.U. after    9 cycles
 SCF Done:  E(RM062X) =  -617.506973677     A.U. after    9 cycles
 SCF Done:  E(RM062X) =  -617.506974464     A.U. after    7 cycles
 SCF Done:  E(RM062X) =  -617.506974712     A.U. after    7 cycles
 Optimization completed.
    -- Stationary point found.
 Normal termination of Gaussian 16 at Sat Mar  9 07:50:23 2019.

 ----------------------------------------------------------------------
 #N Geom=AllCheck Guess=TCheck SCRF=Check GenChk RM062X/6-311++G(2d,2p)
  Freq
 ----------------------------------------------------------------------

 Structure from the checkpoint file:  "4c1_b1_e3_4c1_PHI.inp_extract_11.chk"
 --------------------------------
 4c1_b1_e3_4c1_PHI.inp_extract_11
 --------------------------------
 Charge =  0 Multiplicity = 1

                         Standard orientation:
 ---------------------------------------------------------------------
 Center     Atomic      Atomic             Coordinates (Angstroms)
 Number     Number       Type             X           Y           Z
 ---------------------------------------------------------------------
      1          6           0        2.022114   -1.307858    0.259199
      2          6           0        2.892091    1.310064   -0.467906
      3          6           0       -1.595448    1.189628    0.220178
      4          6           0        1.009867   -0.175187    0.204393
      5          6           0        1.710464    1.148159    0.477150
      6          8           0       -1.739752   -1.218142   -0.048700
      7          6           0       -3.085288    1.314842   -0.103213
      8          8           0        3.808677    0.227491   -0.346634
      9          6           0       -3.522896    0.148779   -0.984854
     10          6           0       -1.328888   -0.176306    0.828366
     11          6           0       -3.141430   -1.162887   -0.323686
     12          6           0        3.186847   -1.011267   -0.672400
     13          8           0       -0.000920   -0.441460    1.186340
     14          1           0        2.390577   -1.406794    1.282883
     15          1           0        1.550832   -2.248176   -0.028675
     16          1           0        3.449665    2.216219   -0.242228
     17          1           0        2.541903    1.367359   -1.504874
     18          1           0       -1.011854    1.307146   -0.694397
     19          1           0       -1.281189    1.955247    0.929511
     20          1           0        0.558907   -0.158891   -0.790685
     21          1           0        1.029121    1.988652    0.349811
     22          1           0        2.067664    1.149482    1.509551
     23          1           0       -3.283853    2.268716   -0.590029
     24          1           0       -3.659409    1.298509    0.827084
     25          1           0       -3.032018    0.213325   -1.958676
     26          1           0       -4.600280    0.164099   -1.151802
     27          1           0       -1.897279   -0.273936    1.759733
     28          1           0       -3.690753   -1.284302    0.616896
     29          1           0       -3.356878   -2.016629   -0.962166
     30          1           0        2.840406   -0.974734   -1.711411
     31          1           0        3.955802   -1.776205   -0.591931
 ---------------------------------------------------------------------

 SCF Done:  E(RM062X) =  -617.506974712     A.U. after    1 cycles

 The electronic state is 1-A.
 Alpha  occ. eigenvalues --  -19.63400 -19.62929 -19.62897 -10.63348 -10.58412
 Alpha  occ. eigenvalues --  -10.57596 -10.57587 -10.57491 -10.52564 -10.52492
 Alpha  occ. eigenvalues --  -10.52422 -10.52335 -10.52251  -1.19710  -1.16156
 Alpha  occ. eigenvalues --   -1.13447  -0.90330  -0.89752  -0.86070  -0.84581
 Alpha  occ. eigenvalues --   -0.75124  -0.73398  -0.72128  -0.69550  -0.66259
 Alpha  occ. eigenvalues --   -0.63814  -0.59840  -0.57722  -0.55453  -0.54681
 Alpha  occ. eigenvalues --   -0.54227  -0.52627  -0.52223  -0.51115  -0.50208
 Alpha  occ. eigenvalues --   -0.48244  -0.47411  -0.45552  -0.44736  -0.44442
 Alpha  occ. eigenvalues --   -0.42518  -0.41410  -0.40600  -0.39917  -0.39078
 Alpha  occ. eigenvalues --   -0.38860  -0.37315  -0.36726  -0.33947  -0.33149
 Alpha  occ. eigenvalues --   -0.32332
 Alpha virt. eigenvalues --    0.00418   0.01226   0.01369   0.01528   0.02835
 Alpha virt. eigenvalues --    0.02935   0.03028   0.03817   0.04048   0.05029
 Alpha virt. eigenvalues --    0.05306   0.05592   0.05830   0.05853   0.07562

 Mulliken charges:
               1
     1  C   -0.166335
     2  C   -0.352407
     3  C   -0.042863
     4  C   -0.295239
     5  C   -0.081361
     6  O   -0.409246
     7  C   -0.536067
     8  O   -0.371038
     9  C   -0.277103
    10  C   -0.222775
    11  C   -0.202164
    12  C   -0.292592
    13  O   -0.333369
    14  H    0.193401
    15  H    0.167571
    16  H    0.214435
    17  H    0.174840
    18  H    0.210190
    19  H    0.201839
    20  H    0.294182
    21  H    0.194280
    22  H    0.202144
    23  H    0.166759
    24  H    0.200918
    25  H    0.162288
    26  H    0.180598
    27  H    0.267669
    28  H    0.162192
    29  H    0.200571
    30  H    0.153829
    31  H    0.234854
 Sum of Mulliken charges =  -0.00000

 Dipole moment (field-independent basis, Debye):
    X=             -3.9546    Y=              2.4040    Z=             -1.9155  Tot=              5.0087
 Quadrupole moment (field-independent basis, Debye-Ang):
   XX=            -81.6801   YY=            -77.6103   ZZ=            -80.7013
   XY=             -2.9390   XZ=             -1.4479   YZ=              1.8029

  Exact polarizability: 184.877   0.640 174.226   0.221   1.411 168.418
 Approx polarizability: 148.110   0.329 142.658   0.529   1.151 141.853

                      1                      2                      3
                      A                      A                      A
 Frequencies --     53.6071                66.0307                86.3454
 Red. masses --      4.0555                 3.0543                 3.8982
 Frc consts  --      0.0069                 0.0078                 0.0171
 IR Inten    --      1.4210                 1.2161                 1.7595

                      4                      5                      6
                      A                      A                      A
 Frequencies --    147.9997               215.7215               241.2719
 Red. masses --      3.3438                 4.0762                 1.9230
 Frc consts  --      0.0432                 0.1118                 0.0660
 IR Inten    --      6.0955                 2.9914                 2.9820

                      7                      8                      9
                      A                      A                      A
 Frequencies --    257.1875               279.8029               339.5145
 Red. masses --      2.1167                 3.5360                 2.1737
 Frc consts  --      0.0825                 0.1631                 0.1476
 IR Inten    --      7.2121                 2.6372                 9.0499

                     10                     11                     12
                      A                      A                      A
 Frequencies --    366.6188               403.3150               429.0851
 Red. masses --      2.2480                 3.7927                 2.9962
 Frc consts  --      0.1780                 0.3635                 0.3250
 IR Inten    --     10.2985                 7.2427                 4.8331

                     13                     14                     15
                      A                      A                      A
 Frequencies --    447.1240               469.4097               483.7428
 Red. masses --      3.9974                 3.1614                 2.2076
 Frc consts  --      0.4709                 0.4104                 0.3044
 IR Inten    --      0.1521                 2.2565                 2.1549

                     16                     17                     18
                      A                      A                      A
 Frequencies --    511.1172               560.9290               609.0701
 Red. masses --      3.5468                 1.8710                 2.0941
 Frc consts  --      0.5459                 0.3468                 0.4577
 IR Inten    --      5.4360                11.3489                25.1520

                     19                     20                     21
                      A                      A                      A
 Frequencies --    671.1815               828.5317               830.3971
 Red. masses --      3.6171                 1.5347                 1.9713
 Frc consts  --      0.9600                 0.6207                 0.8009
 IR Inten    --     10.0306                 0.5790                11.7716

                     22                     23                     24
                      A                      A                      A
 Frequencies --    846.2669               862.3502               880.7751
 Red. masses --      2.4448                 1.7082                 2.2595
 Frc consts  --      1.0316                 0.7485                 1.0327
 IR Inten    --     17.7846                15.8595                 0.7223

                     25                     26                     27
                      A                      A                      A
 Frequencies --    900.9912               933.5372               936.4268
 Red. masses --      2.3186                 2.1479                 2.0084
 Frc consts  --      1.1090                 1.1029                 1.0377
 IR Inten    --     34.9031                38.2844                14.8545

                     28                     29                     30
                      A                      A                      A
 Frequencies --    967.3608               980.3545              1004.5898
 Red. masses --      1.8596                 2.3239                 1.4764
 Frc consts  --      1.0253                 1.3159                 0.8779
 IR Inten    --     11.0670                17.1543                19.7857

                     31                     32                     33
                      A                      A                      A
 Frequencies --   1011.1078              1035.3639              1056.0948
 Red. masses --      1.8762                 2.0260                 1.5634
 Frc consts  --      1.1301                 1.2796                 1.0274
 IR Inten    --     48.5432                47.7499               101.4095

                     34                     35                     36
                      A                      A                      A
 Frequencies --   1073.4091              1086.9110              1117.4144
 Red. masses --      2.9090                 2.4255                 4.6897
 Frc consts  --      1.9748                 1.6883                 3.4500
 IR Inten    --     58.5942                42.7919               294.5840

                     37                     38                     39
                      A                      A                      A
 Frequencies --   1132.5304              1153.3939              1173.5038
 Red. masses --      3.1211                 2.3124                 2.5049
 Frc consts  --      2.3586                 1.8124                 2.0324
 IR Inten    --     55.2660                 4.3860                49.7259

                     40                     41                     42
                      A                      A                      A
 Frequencies --   1186.2497              1196.0113              1207.6022
 Red. masses --      1.9280                 1.5760                 1.5893
 Frc consts  --      1.5985                 1.3282                 1.3656
 IR Inten    --     67.6748                66.5954                20.4825

                     43                     44                     45
                      A                      A                      A
 Frequencies --   1233.6050              1248.7564              1271.1935
 Red. masses --      1.5609                 3.5952                 1.3145
 Frc consts  --      1.3996                 3.3032                 1.2515
 IR Inten    --     46.4833               345.0152                21.8861

                     46                     47                     48
                      A                      A                      A
 Frequencies --   1280.7689              1291.7819              1320.4156
 Red. masses --      1.2563                 1.3192                 1.2164
 Frc consts  --      1.2142                 1.2970                 1.2496
 IR Inten    --     21.1333                22.5998                33.6245

                     49                     50                     51
                      A                      A                      A
 Frequencies --   1324.9468              1339.7990              1355.7086
 Red. masses --      1.4041                 1.2927                 1.3019
 Frc consts  --      1.4522                 1.3672                 1.4098
 IR Inten    --      9.0622                 3.6622                15.3726

                     52                     53                     54
                      A                      A                      A
 Frequencies --   1364.5382              1369.5537              1386.0677
 Red. masses --      1.1979                 1.4594                 1.5046
 Frc consts  --      1.3141                 1.6129                 1.7032
 IR Inten    --     10.0307                 7.9927                 1.6641

                     55                     56                     57
                      A                      A                      A
 Frequencies --   1389.3180              1398.4975              1403.6334
 Red. masses --      1.3658                 1.2630                 1.3848
 Frc consts  --      1.5533                 1.4554                 1.6075
 IR Inten    --      7.8725                25.7875                 1.9537

                     58                     59                     60
                      A                      A                      A
 Frequencies --   1418.6353              1423.3144              1430.7313
 Red. masses --      1.4261                 1.3309                 1.3368
 Frc consts  --      1.6910                 1.5886                 1.6123
 IR Inten    --     41.5671                19.3604                 4.9401

                     61                     62                     63
                      A                      A                      A
 Frequencies --   1444.3636              1467.0549              1470.7094
 Red. masses --      1.4081                 1.1034                 1.1193
 Frc consts  --      1.7307                 1.3992                 1.4264
 IR Inten    --     50.6846                 9.0365                 3.6263

                     64                     65                     66
                      A                      A                      A
 Frequencies --   1473.8634              1481.1799              1490.7623
 Red. masses --      1.1096                 1.1275                 1.1227
 Frc consts  --      1.4201                 1.4575                 1.4700
 IR Inten    --      5.8001                11.2875                25.3008

                     67                     68                     69
                      A                      A                      A
 Frequencies --   1499.8202              1505.3729              1509.1716
 Red. masses --      1.0831                 1.0961                 1.1006
 Frc consts  --      1.4355                 1.4634                 1.4770
 IR Inten    --      3.5238                 5.5868                 8.9535

                     70                     71                     72
                      A                      A                      A
 Frequencies --   3034.1424              3034.6659              3035.7110
 Red. masses --      1.0702                 1.0701                 1.0702
 Frc consts  --      5.8049                 5.8064                 5.8107
 IR Inten    --     74.5341                55.9226                82.5005

                     73                     74                     75
                      A                      A                      A
 Frequencies --   3049.0025              3060.7868              3069.1291
 Red. masses --      1.0848                 1.0683                 1.0663
 Frc consts  --      5.9416                 5.8968                 5.9178
 IR Inten    --     70.2726                30.4221                 9.2653

                     76                     77                     78
                      A                      A                      A
 Frequencies --   3069.4060              3072.0573              3079.6426
 Red. masses --      1.0637                 1.0660                 1.0638
 Frc consts  --      5.9043                 5.9274                 5.9445
 IR Inten    --     52.5544                10.1354                41.8881

                     79                     80                     81
                      A                      A                      A
 Frequencies --   3083.9020              3119.3462              3122.3198
 Red. masses --      1.0705                 1.0978                 1.1007
 Frc consts  --      5.9986                 6.2935                 6.3225
 IR Inten    --     46.9515                42.4112                52.3331

                     82                     83                     84
                      A                      A                      A
 Frequencies --   3125.0253              3132.8005              3137.3816
 Red. masses --      1.1031                 1.1053                 1.0995
 Frc consts  --      6.3473                 6.3916                 6.3762
 IR Inten    --     44.7630                65.1275                39.6537

                     85                     86                     87
                      A                      A                      A
 Frequencies --   3139.4575              3140.5320              3142.2380
 Red. masses --      1.0959                 1.0958                 1.0960
 Frc consts  --      6.3641                 6.3680                 6.3761
 IR Inten    --     39.7796                32.5288                34.6508

 - Thermochemistry -
 -------------------
 Temperature   298.150 Kelvin.  Pressure   1.00000 Atm.
 Atom     1 has atomic number  6 and mass  12.00000

 Molecular mass:   186.12559 amu.
 Principal axes and moments of inertia in atomic units:
                           1         2         3
     Eigenvalues --   979.390674484.062844886.88461
           X            0.99998  -0.00678   0.00132
           Y            0.00676   0.99988   0.01384
           Z           -0.00142  -0.01384   0.99990
 This molecule is an asymmetric top.
 Rotational symmetry number  1.
 Warning -- assumption of classical behavior for rotation
           may cause significant error
 Rotational temperatures (Kelvin)      0.08844     0.01932     0.01772
 Rotational constants (GHZ):           1.84272     0.40248     0.36930
 Zero-point vibrational energy     737386.3 (Joules/Mol)
                                  176.23955 (Kcal/Mol)
 Warning -- explicit consideration of  18 degrees of freedom as
           vibrations may cause significant error
 Vibrational temperatures:     77.13    95.00   124.23   212.94   310.38
          (Kelvin)            347.14   370.04   402.57   488.49   527.48
                              580.28   617.36   643.31   675.38   696.00
                              735.38   807.05   876.32   965.68  1192.07
                             1194.76  1217.59  1240.73  1267.24  1296.33
                             1343.15  1347.31  1391.82  1410.51  1445.38
                             1454.76  1489.66  1519.48  1544.40  1563.82
                             1607.71  1629.46  1659.48  1688.41  1706.75
                             1720.79  1737.47  1774.88  1796.68  1828.96
                             1842.74  1858.59  1899.78  1906.30  1927.67
                             1950.56  1963.27  1970.48  1994.24  1998.92
                             2012.13  2019.52  2041.10  2047.83  2058.50
                             2078.12  2110.76  2116.02  2120.56  2131.09
                             2144.87  2157.91  2165.90  2171.36  4365.45
                             4366.21  4367.71  4386.83  4403.79  4415.79
                             4416.19  4420.01  4430.92  4437.05  4488.04
                             4492.32  4496.21  4507.40  4513.99  4516.98
                             4518.53  4520.98

 Zero-point correction=                           0.280856 (Hartree/Particle)
 Thermal correction to Energy=                    0.292515
 Thermal correction to Enthalpy=                  0.293459
 Thermal correction to Gibbs Free Energy=         0.242868
 Sum of electronic and zero-point Energies=           -617.226119
 Sum of electronic and thermal Energies=              -617.214460
 Sum of electronic and thermal Enthalpies=            -617.213516
 Sum of electronic and thermal Free Energies=         -617.264107

                     E (Thermal)             CV                S
                      KCal/Mol        Cal/Mol-Kelvin    Cal/Mol-Kelvin
 Total                  183.556             46.763            106.477
 Electronic               0.000              0.000              0.000
 Translational            0.889              2.981             41.570
 Rotational               0.889              2.981             31.440
 Vibrational            181.778             40.801             33.467
 Vibration     1          0.596              1.976              4.680
 Vibration     2          0.597              1.970              4.268
 Vibration     3          0.601              1.959              3.741
 Vibration     4          0.617              1.905              2.698
 Vibration     5          0.645              1.817              1.995
 Vibration     6          0.658              1.777              1.793
 Vibration     7          0.667              1.751              1.681
 Vibration     8          0.680              1.711              1.535
 Vibration     9          0.719              1.597              1.214
 Vibration    10          0.740              1.541              1.094
 Vibration    11          0.769              1.463              0.951
 Vibration    12          0.790              1.407              0.862
 Vibration    13          0.806              1.367              0.805
 Vibration    14          0.827              1.318              0.739
 Vibration    15          0.840              1.286              0.700
 Vibration    16          0.866              1.225              0.631
 Vibration    17          0.917              1.116              0.522
 Vibration    18          0.968              1.013              0.434

 Optimization completed.
    -- Stationary point found.
 Normal termination of Gaussian 16 at Sat Mar  9 08:54:44 2019.
