 Gaussian 16, Revision B.01,
 Gaussian 16:  ES64L-G16RevB.01 20-Dec-2017

 ----------------------------------------------------------------------
 #M062X/6-311++G(2d,2p) opt=ModRedundant freq=noraman SCRF=(SMD,solvent
 =water)
 ----------------------------------------------------------------------

 --------------------------------
 4c1_b1_e3_4c1_PHI.inp_extract_14
 --------------------------------
 Symbolic Z-matrix:
 Charge =  0 Multiplicity = 1

 SCF Done:  E(RM062X) =  -617.499872719     A.U. after   12 cycles
 SCF Done:  E(RM062X) =  -617.501126951     A.U. after   10 cycles
 SCF Done:  E(RM062X) =  -617.501410672     A.U. after   10 cycles
 SCF Done:  E(RM062X) =  -617.501622331     A.U. after    9 cycles
 SCF Done:  E(RM062X) =  -617.501639676     A.U. after    8 cycles
 SCF Done:  E(RM062X) =  -617.501640860     A.U. after    8 cycles
 SCF Done:  E(RM062X) =  -617.501641724     A.U. after    8 cycles
 Optimization completed.
    -- Stationary point found.
 Normal termination of Gaussian 16 at Sat Mar  9 08:45:45 2019.

 ----------------------------------------------------------------------
 #N Geom=AllCheck Guess=TCheck SCRF=Check GenChk RM062X/6-311++G(2d,2p)
  Freq
 ----------------------------------------------------------------------

 Structure from the checkpoint file:  "4c1_b1_e3_4c1_PHI.inp_extract_14.chk"
 --------------------------------
 4c1_b1_e3_4c1_PHI.inp_extract_14
 --------------------------------
 Charge =  0 Multiplicity = 1

                         Standard orientation:
 ---------------------------------------------------------------------
 Center     Atomic      Atomic             Coordinates (Angstroms)
 Number     Number       Type             X           Y           Z
 ---------------------------------------------------------------------
      1          6           0       -2.058013   -1.337793    0.213954
      2          6           0       -3.090313    1.305760   -0.095135
      3          6           0        1.467968    1.027294    0.319136
      4          6           0       -1.097059   -0.186084   -0.031441
      5          6           0       -1.811179    0.906941   -0.815271
      6          8           0        2.106055   -1.244967   -0.152881
      7          6           0        2.941322    1.443300    0.319304
      8          8           0       -3.951900    0.186807    0.087628
      9          6           0        3.820504    0.253528    0.695418
     10          6           0        1.305361   -0.161572   -0.611067
     11          6           0        3.498786   -0.927536   -0.202379
     12          6           0       -3.326494   -0.820960    0.875706
     13          8           0        0.016618   -0.703600   -0.763007
     14          1           0       -2.309494   -1.803413   -0.741611
     15          1           0       -1.592776   -2.090086    0.851470
     16          1           0       -3.650901    2.038864   -0.670661
     17          1           0       -2.855045    1.739378    0.883576
     18          1           0        1.175156    0.738957    1.329586
     19          1           0        0.833613    1.850745   -0.005931
     20          1           0       -0.770585    0.204651    0.932673
     21          1           0       -1.174781    1.783271   -0.938779
     22          1           0       -2.058047    0.521371   -1.807163
     23          1           0        3.092490    2.270877    1.010999
     24          1           0        3.216584    1.797752   -0.677464
     25          1           0        3.636224   -0.029123    1.734304
     26          1           0        4.878141    0.500329    0.598906
     27          1           0        1.660115    0.110811   -1.612658
     28          1           0        3.774962   -0.702135   -1.238516
     29          1           0        4.024678   -1.827762    0.107223
     30          1           0       -3.095976   -0.408992    1.864702
     31          1           0       -4.055837   -1.618695    0.996069
 ---------------------------------------------------------------------

 SCF Done:  E(RM062X) =  -617.501641724     A.U. after    1 cycles

 The electronic state is 1-A.
 Alpha  occ. eigenvalues --  -19.63211 -19.62905 -19.62902 -10.63480 -10.58499
 Alpha  occ. eigenvalues --  -10.57608 -10.57595 -10.57438 -10.52658 -10.52610
 Alpha  occ. eigenvalues --  -10.52446 -10.52313 -10.52238  -1.19497  -1.16150
 Alpha  occ. eigenvalues --   -1.13444  -0.90288  -0.89841  -0.86066  -0.84651
 Alpha  occ. eigenvalues --   -0.75209  -0.73374  -0.72192  -0.69307  -0.66238
 Alpha  occ. eigenvalues --   -0.63850  -0.60124  -0.57060  -0.56456  -0.54494
 Alpha  occ. eigenvalues --   -0.54170  -0.52514  -0.52177  -0.50715  -0.50251
 Alpha  occ. eigenvalues --   -0.48997  -0.47433  -0.45533  -0.44854  -0.43744
 Alpha  occ. eigenvalues --   -0.42390  -0.41930  -0.41032  -0.39819  -0.38918
 Alpha  occ. eigenvalues --   -0.38088  -0.37396  -0.36848  -0.33928  -0.33129
 Alpha  occ. eigenvalues --   -0.32244
 Alpha virt. eigenvalues --    0.00462   0.01241   0.01326   0.01596   0.02793
 Alpha virt. eigenvalues --    0.02877   0.02979   0.03997   0.04105   0.04908
 Alpha virt. eigenvalues --    0.05216   0.05541   0.05787   0.05878   0.07702

 Mulliken charges:
               1
     1  C   -0.093626
     2  C   -0.394666
     3  C   -0.214564
     4  C   -0.185627
     5  C   -0.146185
     6  O   -0.402479
     7  C   -0.555764
     8  O   -0.366638
     9  C   -0.295394
    10  C    0.005527
    11  C   -0.154328
    12  C   -0.308686
    13  O   -0.421878
    14  H    0.194883
    15  H    0.173813
    16  H    0.212947
    17  H    0.171324
    18  H    0.230464
    19  H    0.160581
    20  H    0.278118
    21  H    0.191765
    22  H    0.203458
    23  H    0.168516
    24  H    0.195615
    25  H    0.161607
    26  H    0.181482
    27  H    0.257617
    28  H    0.153092
    29  H    0.207925
    30  H    0.158296
    31  H    0.232803
 Sum of Mulliken charges =  -0.00000

 Dipole moment (field-independent basis, Debye):
    X=              3.1338    Y=              3.9236    Z=              1.7517  Tot=              5.3182
 Quadrupole moment (field-independent basis, Debye-Ang):
   XX=            -82.4744   YY=            -80.0163   ZZ=            -78.5837
   XY=              3.8572   XZ=             -3.3030   YZ=             -2.9284

  Exact polarizability: 187.556  -0.453 173.201  -1.289  -1.736 166.925
 Approx polarizability: 148.879   0.231 142.977  -0.248  -1.404 140.788

 ******    1 imaginary frequencies (negative Signs) ******

                      1                      2                      3
                      A                      A                      A
 Frequencies --    -60.1992                68.3533                86.1051
 Red. masses --      3.8631                 3.3957                 4.2266
 Frc consts  --      0.0082                 0.0093                 0.0185
 IR Inten    --      2.1196                 1.2277                 0.2959

                      4                      5                      6
                      A                      A                      A
 Frequencies --    159.4402               216.4416               245.7602
 Red. masses --      3.1582                 3.8740                 1.8848
 Frc consts  --      0.0473                 0.1069                 0.0671
 IR Inten    --      3.5387                 8.8620                 0.9857

                      7                      8                      9
                      A                      A                      A
 Frequencies --    254.4412               282.4718               307.6512
 Red. masses --      2.6494                 2.9147                 4.1249
 Frc consts  --      0.1011                 0.1370                 0.2300
 IR Inten    --      4.4116                 1.8155                13.5950

                     10                     11                     12
                      A                      A                      A
 Frequencies --    362.1236               371.7910               433.3042
 Red. masses --      1.9125                 2.4381                 2.7559
 Frc consts  --      0.1478                 0.1986                 0.3049
 IR Inten    --      1.3125                10.9416                 6.3174

                     13                     14                     15
                      A                      A                      A
 Frequencies --    462.3665               476.4231               483.6772
 Red. masses --      3.9724                 3.1355                 2.3716
 Frc consts  --      0.5003                 0.4193                 0.3269
 IR Inten    --      0.8540                 1.3995                 4.7126

                     16                     17                     18
                      A                      A                      A
 Frequencies --    507.1692               554.7378               602.9359
 Red. masses --      3.6163                 1.8915                 2.1683
 Frc consts  --      0.5480                 0.3429                 0.4644
 IR Inten    --      5.4726                10.5089                13.0023

                     19                     20                     21
                      A                      A                      A
 Frequencies --    668.4435               827.9231               830.0894
 Red. masses --      3.0640                 1.8594                 1.6121
 Frc consts  --      0.8066                 0.7509                 0.6545
 IR Inten    --     15.5158                13.6765                 1.3183

                     22                     23                     24
                      A                      A                      A
 Frequencies --    847.6232               861.5772               880.6687
 Red. masses --      2.7634                 1.5622                 2.3679
 Frc consts  --      1.1698                 0.6833                 1.0820
 IR Inten    --     25.0163                13.4274                 1.9127

                     25                     26                     27
                      A                      A                      A
 Frequencies --    899.7714               932.3188               937.6062
 Red. masses --      2.3927                 2.0848                 2.1749
 Frc consts  --      1.1413                 1.0677                 1.1265
 IR Inten    --     24.2920                16.4318                28.8769

                     28                     29                     30
                      A                      A                      A
 Frequencies --    963.4415               978.8046              1005.9746
 Red. masses --      1.8486                 2.0795                 1.4709
 Frc consts  --      1.0110                 1.1738                 0.8770
 IR Inten    --     25.8989                10.9121                13.4223

                     31                     32                     33
                      A                      A                      A
 Frequencies --   1017.4534              1035.1025              1062.8761
 Red. masses --      2.0197                 2.0378                 1.5890
 Frc consts  --      1.2319                 1.2864                 1.0576
 IR Inten    --     45.0487                56.6822                63.1408

                     34                     35                     36
                      A                      A                      A
 Frequencies --   1076.4448              1093.5475              1115.2305
 Red. masses --      2.8881                 2.4298                 4.6652
 Frc consts  --      1.9717                 1.7120                 3.4186
 IR Inten    --     76.3758                72.6079               290.7562

                     37                     38                     39
                      A                      A                      A
 Frequencies --   1130.7697              1155.0833              1168.6045
 Red. masses --      3.1318                 2.3180                 2.5850
 Frc consts  --      2.3594                 1.8222                 2.0799
 IR Inten    --     54.7057                 2.5089                68.0634

                     40                     41                     42
                      A                      A                      A
 Frequencies --   1186.8248              1193.9465              1203.5295
 Red. masses --      1.9682                 1.5717                 1.5052
 Frc consts  --      1.6334                 1.3200                 1.2846
 IR Inten    --     55.6518                58.5701                19.0053

                     43                     44                     45
                      A                      A                      A
 Frequencies --   1235.4619              1261.2011              1271.5825
 Red. masses --      1.5648                 3.1314                 1.3132
 Frc consts  --      1.4073                 2.9347                 1.2510
 IR Inten    --     61.3213               358.5937                22.0406

                     46                     47                     48
                      A                      A                      A
 Frequencies --   1285.6517              1290.3850              1319.4077
 Red. masses --      1.3697                 1.2210                 1.2642
 Frc consts  --      1.3339                 1.1978                 1.2967
 IR Inten    --     52.7999                 9.7165                38.6758

                     49                     50                     51
                      A                      A                      A
 Frequencies --   1324.5075              1337.9552              1357.4273
 Red. masses --      1.3772                 1.2865                 1.2813
 Frc consts  --      1.4235                 1.3569                 1.3911
 IR Inten    --     17.4358                 4.9241                11.4076

                     52                     53                     54
                      A                      A                      A
 Frequencies --   1366.8922              1369.6595              1385.7165
 Red. masses --      1.3223                 1.3334                 1.4374
 Frc consts  --      1.4556                 1.4738                 1.6262
 IR Inten    --      0.5704                10.3684                13.4719

                     55                     56                     57
                      A                      A                      A
 Frequencies --   1386.4586              1398.5980              1404.9075
 Red. masses --      1.5045                 1.3140                 1.3220
 Frc consts  --      1.7040                 1.5144                 1.5373
 IR Inten    --     12.7727                24.1491                 6.4917

                     58                     59                     60
                      A                      A                      A
 Frequencies --   1419.1975              1426.1419              1430.7396
 Red. masses --      1.3576                 1.3312                 1.3086
 Frc consts  --      1.6111                 1.5952                 1.5783
 IR Inten    --     28.6312                19.2784                 2.3347

                     61                     62                     63
                      A                      A                      A
 Frequencies --   1441.6611              1468.9616              1470.8510
 Red. masses --      1.4620                 1.0990                 1.1108
 Frc consts  --      1.7904                 1.3972                 1.4159
 IR Inten    --     61.0387                 5.9516                 5.2814

                     64                     65                     66
                      A                      A                      A
 Frequencies --   1475.5243              1483.3338              1490.2584
 Red. masses --      1.1045                 1.1339                 1.1227
 Frc consts  --      1.4168                 1.4699                 1.4690
 IR Inten    --     10.6245                 5.5823                22.4380

                     67                     68                     69
                      A                      A                      A
 Frequencies --   1499.6837              1505.4902              1508.4027
 Red. masses --      1.0830                 1.0963                 1.1003
 Frc consts  --      1.4351                 1.4640                 1.4750
 IR Inten    --      3.3239                 6.8303                 8.8727

                     70                     71                     72
                      A                      A                      A
 Frequencies --   3023.6759              3035.1269              3035.5842
 Red. masses --      1.0837                 1.0700                 1.0704
 Frc consts  --      5.8373                 5.8077                 5.8114
 IR Inten    --     76.0307                28.9846               119.4385

                     73                     74                     75
                      A                      A                      A
 Frequencies --   3036.4907              3062.5930              3070.3508
 Red. masses --      1.0702                 1.0679                 1.0616
 Frc consts  --      5.8137                 5.9016                 5.8963
 IR Inten    --     72.2355                29.0525                45.3229

                     76                     77                     78
                      A                      A                      A
 Frequencies --   3071.7040              3073.1922              3084.5956
 Red. masses --      1.0617                 1.0630                 1.0643
 Frc consts  --      5.9022                 5.9154                 5.9661
 IR Inten    --     15.8144                38.6708                23.6765

                     79                     80                     81
                      A                      A                      A
 Frequencies --   3104.3895              3119.7866              3123.2529
 Red. masses --      1.0814                 1.0976                 1.1017
 Frc consts  --      6.1405                 6.2943                 6.3316
 IR Inten    --     23.8690                35.3345                58.4722

                     82                     83                     84
                      A                      A                      A
 Frequencies --   3126.7795              3131.6707              3140.6264
 Red. masses --      1.1027                 1.1013                 1.0954
 Frc consts  --      6.3519                 6.3634                 6.3659
 IR Inten    --     24.3624                78.4173                52.0343

                     85                     86                     87
                      A                      A                      A
 Frequencies --   3140.7283              3143.1417              3146.6584
 Red. masses --      1.0960                 1.0959                 1.1012
 Frc consts  --      6.3699                 6.3787                 6.4240
 IR Inten    --     36.2715                37.2417                36.7313

 - Thermochemistry -
 -------------------
 Temperature   298.150 Kelvin.  Pressure   1.00000 Atm.
 Atom     1 has atomic number  6 and mass  12.00000

 Molecular mass:   186.12559 amu.
 Principal axes and moments of inertia in atomic units:
                           1         2         3
     Eigenvalues --   871.595524869.559565285.97510
           X            0.99998   0.00657  -0.00056
           Y           -0.00658   0.99980  -0.01879
           Z            0.00043   0.01880   0.99982
 This molecule is an asymmetric top.
 Rotational symmetry number  1.
 Warning -- assumption of classical behavior for rotation
           may cause significant error
 Rotational temperatures (Kelvin)      0.09937     0.01779     0.01639
 Rotational constants (GHZ):           2.07062     0.37062     0.34142
    1 imaginary frequencies ignored.
 Zero-point vibrational energy     737110.5 (Joules/Mol)
                                  176.17364 (Kcal/Mol)
 Warning -- explicit consideration of  17 degrees of freedom as
           vibrations may cause significant error
 Vibrational temperatures:     98.35   123.89   229.40   311.41   353.59
          (Kelvin)            366.08   406.41   442.64   521.02   534.92
                              623.43   665.24   685.47   695.90   729.70
                              798.14   867.49   961.74  1191.20  1194.31
                             1219.54  1239.62  1267.09  1294.57  1341.40
                             1349.01  1386.18  1408.28  1447.37  1463.89
                             1489.28  1529.24  1548.76  1573.37  1604.57
                             1626.93  1661.91  1681.36  1707.58  1717.82
                             1731.61  1777.55  1814.59  1829.52  1849.77
                             1856.58  1898.33  1905.67  1925.02  1953.04
                             1966.65  1970.63  1993.74  1994.80  2012.27
                             2021.35  2041.91  2051.90  2058.52  2074.23
                             2113.51  2116.23  2122.95  2134.19  2144.15
                             2157.71  2166.06  2170.26  4350.40  4366.87
                             4367.53  4368.83  4406.39  4417.55  4419.50
                             4421.64  4438.05  4466.52  4488.68  4493.66
                             4498.74  4505.78  4518.66  4518.81  4522.28
                             4527.34

 Zero-point correction=                           0.280751 (Hartree/Particle)
 Thermal correction to Energy=                    0.291613
 Thermal correction to Enthalpy=                  0.292557
 Thermal correction to Gibbs Free Energy=         0.244162
 Sum of electronic and zero-point Energies=           -617.220891
 Sum of electronic and thermal Energies=              -617.210029
 Sum of electronic and thermal Enthalpies=            -617.209085
 Sum of electronic and thermal Free Energies=         -617.257480

                     E (Thermal)             CV                S
                      KCal/Mol        Cal/Mol-Kelvin    Cal/Mol-Kelvin
 Total                  182.990             44.869            101.856
 Electronic               0.000              0.000              0.000
 Translational            0.889              2.981             41.570
 Rotational               0.889              2.981             31.484
 Vibrational            181.212             38.908             28.802
 Vibration     1          0.598              1.969              4.200
 Vibration     2          0.601              1.959              3.747
 Vibration     3          0.621              1.892              2.556
 Vibration     4          0.645              1.816              1.989
 Vibration     5          0.660              1.770              1.761
 Vibration     6          0.665              1.755              1.700
 Vibration     7          0.682              1.706              1.519
 Vibration     8          0.698              1.659              1.375
 Vibration     9          0.736              1.550              1.113
 Vibration    10          0.743              1.530              1.072
 Vibration    11          0.794              1.398              0.848
 Vibration    12          0.820              1.334              0.759
 Vibration    13          0.833              1.302              0.720
 Vibration    14          0.840              1.286              0.700
 Vibration    15          0.862              1.234              0.640
 Vibration    16          0.910              1.129              0.534
 Vibration    17          0.961              1.026              0.445

                           ! Non-Optimized Parameters !
 Normal termination of Gaussian 16 at Sat Mar  9 09:47:42 2019.
