 Gaussian 16, Revision B.01,
 Gaussian 16:  ES64L-G16RevB.01 20-Dec-2017

 ----------------------------------------------------------------------
 #M062X/6-311++G(2d,2p) opt=ModRedundant freq=noraman SCRF=(SMD,solvent
 =water)
 ----------------------------------------------------------------------

 --------------------------------
 4c1_b1_e3_4c1_PHI.inp_extract_10
 --------------------------------
 Symbolic Z-matrix:
 Charge =  0 Multiplicity = 1

 SCF Done:  E(RM062X) =  -617.505245982     A.U. after   12 cycles
 SCF Done:  E(RM062X) =  -617.506880060     A.U. after   10 cycles
 SCF Done:  E(RM062X) =  -617.507053685     A.U. after   10 cycles
 SCF Done:  E(RM062X) =  -617.507111815     A.U. after    9 cycles
 SCF Done:  E(RM062X) =  -617.507117239     A.U. after    9 cycles
 SCF Done:  E(RM062X) =  -617.507118447     A.U. after    9 cycles
 SCF Done:  E(RM062X) =  -617.507118822     A.U. after    8 cycles
 Optimization completed.
    -- Stationary point found.
 Normal termination of Gaussian 16 at Sat Mar  9 07:30:14 2019.

 ----------------------------------------------------------------------
 #N Geom=AllCheck Guess=TCheck SCRF=Check GenChk RM062X/6-311++G(2d,2p)
  Freq
 ----------------------------------------------------------------------

 Structure from the checkpoint file:  "4c1_b1_e3_4c1_PHI.inp_extract_10.chk"
 --------------------------------
 4c1_b1_e3_4c1_PHI.inp_extract_10
 --------------------------------
 Charge =  0 Multiplicity = 1

                         Standard orientation:
 ---------------------------------------------------------------------
 Center     Atomic      Atomic             Coordinates (Angstroms)
 Number     Number       Type             X           Y           Z
 ---------------------------------------------------------------------
      1          6           0        1.936019   -1.247360    0.414677
      2          6           0        2.918655    1.222093   -0.633119
      3          6           0       -1.716513    1.244176    0.217683
      4          6           0        0.989295   -0.068606    0.264022
      5          6           0        1.768007    1.234067    0.361796
      6          8           0       -1.584750   -1.164931    0.023116
      7          6           0       -3.187282    1.205786   -0.198014
      8          8           0        3.778541    0.107192   -0.418666
      9          6           0       -3.447278   -0.029322   -1.055933
     10          6           0       -1.339856   -0.066379    0.888321
     11          6           0       -2.967808   -1.270233   -0.325561
     12          6           0        3.079100   -1.122624   -0.581527
     13          8           0       -0.001346   -0.132505    1.300480
     14          1           0        2.337227   -1.254633    1.430765
     15          1           0        1.403475   -2.184521    0.248753
     16          1           0        3.533931    2.113120   -0.531181
     17          1           0        2.532064    1.182609   -1.657889
     18          1           0       -1.086946    1.389001   -0.662875
     19          1           0       -1.521631    2.059346    0.914869
     20          1           0        0.504136   -0.129066   -0.711767
     21          1           0        1.117817    2.086305    0.160683
     22          1           0        2.163452    1.335488    1.375095
     23          1           0       -3.452457    2.116335   -0.733724
     24          1           0       -3.813991    1.160998    0.696848
     25          1           0       -2.910682    0.055351   -2.003770
     26          1           0       -4.508725   -0.136228   -1.281273
     27          1           0       -1.928537   -0.200703    1.801710
     28          1           0       -3.552792   -1.420500    0.588725
     29          1           0       -3.054387   -2.162208   -0.941751
     30          1           0        2.695377   -1.181924   -1.606314
     31          1           0        3.809075   -1.916405   -0.440409
 ---------------------------------------------------------------------

 SCF Done:  E(RM062X) =  -617.507118822     A.U. after    1 cycles

 The electronic state is 1-A.
 Alpha  occ. eigenvalues --  -19.63292 -19.63013 -19.62890 -10.63334 -10.58292
 Alpha  occ. eigenvalues --  -10.57581 -10.57579 -10.57547 -10.52527 -10.52378
 Alpha  occ. eigenvalues --  -10.52362 -10.52331 -10.52257  -1.19772  -1.16121
 Alpha  occ. eigenvalues --   -1.13430  -0.90375  -0.89631  -0.86040  -0.84527
 Alpha  occ. eigenvalues --   -0.75084  -0.73280  -0.72153  -0.69604  -0.66265
 Alpha  occ. eigenvalues --   -0.63775  -0.59848  -0.57804  -0.55297  -0.54725
 Alpha  occ. eigenvalues --   -0.54257  -0.52491  -0.52183  -0.51115  -0.50073
 Alpha  occ. eigenvalues --   -0.47965  -0.47529  -0.45495  -0.44891  -0.44460
 Alpha  occ. eigenvalues --   -0.42571  -0.41405  -0.40566  -0.39831  -0.39315
 Alpha  occ. eigenvalues --   -0.38937  -0.37247  -0.36783  -0.34046  -0.33142
 Alpha  occ. eigenvalues --   -0.31951
 Alpha virt. eigenvalues --    0.00404   0.01222   0.01387   0.01506   0.02839
 Alpha virt. eigenvalues --    0.02929   0.03040   0.03783   0.04006   0.05036
 Alpha virt. eigenvalues --    0.05372   0.05568   0.05823   0.05852   0.07599

 Mulliken charges:
               1
     1  C   -0.160682
     2  C   -0.339618
     3  C   -0.015615
     4  C   -0.261305
     5  C   -0.111215
     6  O   -0.400862
     7  C   -0.486121
     8  O   -0.371153
     9  C   -0.277078
    10  C   -0.310671
    11  C   -0.203136
    12  C   -0.295851
    13  O   -0.327511
    14  H    0.192130
    15  H    0.168279
    16  H    0.218417
    17  H    0.171914
    18  H    0.193584
    19  H    0.201244
    20  H    0.306984
    21  H    0.181357
    22  H    0.197377
    23  H    0.168839
    24  H    0.197492
    25  H    0.162931
    26  H    0.179743
    27  H    0.268369
    28  H    0.166309
    29  H    0.198546
    30  H    0.154446
    31  H    0.232854
 Sum of Mulliken charges =  -0.00000

 Dipole moment (field-independent basis, Debye):
    X=             -4.2855    Y=              1.6379    Z=             -2.1474  Tot=              5.0655
 Quadrupole moment (field-independent basis, Debye-Ang):
   XX=            -81.7621   YY=            -76.4502   ZZ=            -81.3273
   XY=             -1.3264   XZ=             -0.8047   YZ=              0.8678

  Exact polarizability: 183.748   1.042 174.674   0.261   1.412 168.695
 Approx polarizability: 147.723   0.744 142.760   0.454   1.334 141.930

                      1                      2                      3
                      A                      A                      A
 Frequencies --     40.3839                68.5488                75.0915
 Red. masses --      3.7107                 3.5627                 3.4610
 Frc consts  --      0.0036                 0.0099                 0.0115
 IR Inten    --      0.5697                 0.6281                 2.8064

                      4                      5                      6
                      A                      A                      A
 Frequencies --    143.6822               214.3066               241.0294
 Red. masses --      3.3806                 3.7822                 1.9687
 Frc consts  --      0.0411                 0.1023                 0.0674
 IR Inten    --      5.5377                 3.8305                 4.2904

                      7                      8                      9
                      A                      A                      A
 Frequencies --    252.5589               277.7361               342.5091
 Red. masses --      2.1083                 3.6387                 1.9998
 Frc consts  --      0.0792                 0.1654                 0.1382
 IR Inten    --      4.3490                 3.1444                 7.2100

                     10                     11                     12
                      A                      A                      A
 Frequencies --    365.0441               407.6421               428.6787
 Red. masses --      2.3151                 4.9854                 2.7327
 Frc consts  --      0.1818                 0.4881                 0.2959
 IR Inten    --     13.2342                 8.1553                 4.6548

                     13                     14                     15
                      A                      A                      A
 Frequencies --    445.0858               468.2316               485.1687
 Red. masses --      3.8934                 3.2466                 2.1992
 Frc consts  --      0.4544                 0.4194                 0.3050
 IR Inten    --      0.2542                 3.9525                 2.8651

                     16                     17                     18
                      A                      A                      A
 Frequencies --    508.2501               558.4558               609.4501
 Red. masses --      3.7825                 1.8437                 2.0362
 Frc consts  --      0.5757                 0.3388                 0.4456
 IR Inten    --      7.9322                12.8252                24.7102

                     19                     20                     21
                      A                      A                      A
 Frequencies --    669.1630               830.4655               832.2731
 Red. masses --      3.6031                 1.4817                 1.9975
 Frc consts  --      0.9506                 0.6021                 0.8152
 IR Inten    --     10.6216                 1.8286                 5.8676

                     22                     23                     24
                      A                      A                      A
 Frequencies --    846.6161               860.6351               882.2852
 Red. masses --      2.3856                 1.7714                 2.2159
 Frc consts  --      1.0075                 0.7730                 1.0163
 IR Inten    --     16.2632                19.8658                 0.5713

                     25                     26                     27
                      A                      A                      A
 Frequencies --    899.7682               931.5330               941.7773
 Red. masses --      2.2820                 1.8167                 2.3644
 Frc consts  --      1.0885                 0.9288                 1.2356
 IR Inten    --     33.3932                 3.5627                37.0051

                     28                     29                     30
                      A                      A                      A
 Frequencies --    966.0475               981.2704              1000.1677
 Red. masses --      1.8290                 2.4595                 1.4160
 Frc consts  --      1.0057                 1.3953                 0.8345
 IR Inten    --      6.0176                17.1116                19.9975

                     31                     32                     33
                      A                      A                      A
 Frequencies --   1008.6444              1031.7147              1059.1337
 Red. masses --      1.8866                 2.0080                 1.5054
 Frc consts  --      1.1308                 1.2593                 0.9950
 IR Inten    --     50.6589                36.9289                82.9493

                     34                     35                     36
                      A                      A                      A
 Frequencies --   1072.3056              1089.7475              1122.7793
 Red. masses --      2.8450                 2.5483                 4.7853
 Frc consts  --      1.9274                 1.7830                 3.5542
 IR Inten    --     51.0285                53.2575               291.6136

                     37                     38                     39
                      A                      A                      A
 Frequencies --   1131.3404              1152.2303              1174.8088
 Red. masses --      3.2529                 2.2992                 2.3575
 Frc consts  --      2.4531                 1.7985                 1.9170
 IR Inten    --     62.0190                 7.1203                37.2020

                     40                     41                     42
                      A                      A                      A
 Frequencies --   1184.1184              1195.4839              1203.7222
 Red. masses --      1.9743                 1.6573                 1.4757
 Frc consts  --      1.6310                 1.3955                 1.2598
 IR Inten    --     74.7231                72.2627                16.8576

                     43                     44                     45
                      A                      A                      A
 Frequencies --   1235.4034              1251.9363              1270.0831
 Red. masses --      1.6049                 3.5453                 1.3163
 Frc consts  --      1.4432                 3.2739                 1.2510
 IR Inten    --     51.7183               357.9497                26.4178

                     46                     47                     48
                      A                      A                      A
 Frequencies --   1279.5054              1288.6201              1319.6131
 Red. masses --      1.2712                 1.3004                 1.2420
 Frc consts  --      1.2261                 1.2723                 1.2743
 IR Inten    --     22.0098                14.9394                42.2881

                     49                     50                     51
                      A                      A                      A
 Frequencies --   1325.1530              1334.8128              1352.8624
 Red. masses --      1.4161                 1.2824                 1.3031
 Frc consts  --      1.4651                 1.3462                 1.4052
 IR Inten    --      4.8959                 4.7808                19.0598

                     52                     53                     54
                      A                      A                      A
 Frequencies --   1365.1901              1367.6176              1385.9523
 Red. masses --      1.2073                 1.4378                 1.5027
 Frc consts  --      1.3257                 1.5844                 1.7006
 IR Inten    --      9.8710                 2.9040                 2.6920

                     55                     56                     57
                      A                      A                      A
 Frequencies --   1386.3445              1394.1239              1400.2126
 Red. masses --      1.4432                 1.2683                 1.3824
 Frc consts  --      1.6343                 1.4523                 1.5969
 IR Inten    --      3.5134                16.2087                 4.7341

                     58                     59                     60
                      A                      A                      A
 Frequencies --   1418.5272              1421.2907              1429.3988
 Red. masses --      1.4034                 1.3527                 1.3380
 Frc consts  --      1.6638                 1.6100                 1.6107
 IR Inten    --     56.3919                23.0224                 5.5692

                     61                     62                     63
                      A                      A                      A
 Frequencies --   1440.6673              1468.1588              1470.0230
 Red. masses --      1.4316                 1.1003                 1.1500
 Frc consts  --      1.7507                 1.3973                 1.4642
 IR Inten    --     49.2027                 7.1529                 5.7922

                     64                     65                     66
                      A                      A                      A
 Frequencies --   1473.0499              1481.4394              1490.5014
 Red. masses --      1.0915                 1.1269                 1.1166
 Frc consts  --      1.3954                 1.4571                 1.4615
 IR Inten    --     10.3936                10.5986                24.0604

                     67                     68                     69
                      A                      A                      A
 Frequencies --   1499.9756              1504.2728              1508.8991
 Red. masses --      1.0828                 1.0979                 1.1006
 Frc consts  --      1.4353                 1.4637                 1.4763
 IR Inten    --      3.1356                 6.0058                 8.8739

                     70                     71                     72
                      A                      A                      A
 Frequencies --   3035.2748              3035.9581              3036.7341
 Red. masses --      1.0701                 1.0703                 1.0702
 Frc consts  --      5.8087                 5.8125                 5.8149
 IR Inten    --     41.7334               106.8455                64.6926

                     73                     74                     75
                      A                      A                      A
 Frequencies --   3054.6011              3059.3963              3068.4998
 Red. masses --      1.0848                 1.0683                 1.0622
 Frc consts  --      5.9634                 5.8916                 5.8926
 IR Inten    --     61.7365                30.1420                39.2194

                     76                     77                     78
                      A                      A                      A
 Frequencies --   3069.5575              3070.5290              3074.9405
 Red. masses --      1.0614                 1.0637                 1.0611
 Frc consts  --      5.8922                 5.9085                 5.9112
 IR Inten    --     17.4647                37.2426                37.6366

                     79                     80                     81
                      A                      A                      A
 Frequencies --   3091.5788              3118.1259              3121.2608
 Red. masses --      1.0815                 1.0959                 1.1023
 Frc consts  --      6.0900                 6.2776                 6.3270
 IR Inten    --     23.0719                41.3613                54.2790

                     82                     83                     84
                      A                      A                      A
 Frequencies --   3123.4963              3125.9671              3128.1706
 Red. masses --      1.1027                 1.1037                 1.1045
 Frc consts  --      6.3386                 6.3541                 6.3681
 IR Inten    --     35.9840                31.4559                87.3615

                     85                     86                     87
                      A                      A                      A
 Frequencies --   3141.1592              3141.9219              3142.9305
 Red. masses --      1.0953                 1.0960                 1.0959
 Frc consts  --      6.3672                 6.3743                 6.3783
 IR Inten    --     41.9653                40.1865                35.0475

 - Thermochemistry -
 -------------------
 Temperature   298.150 Kelvin.  Pressure   1.00000 Atm.
 Atom     1 has atomic number  6 and mass  12.00000

 Molecular mass:   186.12559 amu.
 Principal axes and moments of inertia in atomic units:
                           1         2         3
     Eigenvalues --  1004.759904416.614664769.69042
           X            0.99998  -0.00503   0.00244
           Y            0.00502   0.99997   0.00643
           Z           -0.00247  -0.00642   0.99998
 This molecule is an asymmetric top.
 Rotational symmetry number  1.
 Warning -- assumption of classical behavior for rotation
           may cause significant error
 Rotational temperatures (Kelvin)      0.08620     0.01961     0.01816
 Rotational constants (GHZ):           1.79619     0.40863     0.37838
 Zero-point vibrational energy     736921.3 (Joules/Mol)
                                  176.12842 (Kcal/Mol)
 Warning -- explicit consideration of  18 degrees of freedom as
           vibrations may cause significant error
 Vibrational temperatures:     58.10    98.63   108.04   206.73   308.34
          (Kelvin)            346.79   363.38   399.60   492.79   525.22
                              586.51   616.77   640.38   673.68   698.05
                              731.26   803.49   876.86   962.78  1194.85
                             1197.46  1218.09  1238.26  1269.41  1294.57
                             1340.27  1355.01  1389.93  1411.83  1439.02
                             1451.21  1484.41  1523.86  1542.81  1567.90
                             1615.43  1627.75  1657.80  1690.29  1703.68
                             1720.03  1731.89  1777.47  1801.26  1827.37
                             1840.92  1854.04  1898.63  1906.60  1920.50
                             1946.47  1964.20  1967.70  1994.08  1994.64
                             2005.83  2014.59  2040.94  2044.92  2056.59
                             2072.80  2112.35  2115.04  2119.39  2131.46
                             2144.50  2158.13  2164.31  2170.97  4367.08
                             4368.07  4369.18  4394.89  4401.79  4414.89
                             4416.41  4417.81  4424.15  4448.09  4486.29
                             4490.80  4494.01  4497.57  4500.74  4519.43
                             4520.52  4521.98

 Zero-point correction=                           0.280679 (Hartree/Particle)
 Thermal correction to Energy=                    0.292403
 Thermal correction to Enthalpy=                  0.293347
 Thermal correction to Gibbs Free Energy=         0.242347
 Sum of electronic and zero-point Energies=           -617.226440
 Sum of electronic and thermal Energies=              -617.214716
 Sum of electronic and thermal Enthalpies=            -617.213772
 Sum of electronic and thermal Free Energies=         -617.264772

                     E (Thermal)             CV                S
                      KCal/Mol        Cal/Mol-Kelvin    Cal/Mol-Kelvin
 Total                  183.485             46.810            107.338
 Electronic               0.000              0.000              0.000
 Translational            0.889              2.981             41.570
 Rotational               0.889              2.981             31.426
 Vibrational            181.708             40.848             34.342
 Vibration     1          0.594              1.981              5.240
 Vibration     2          0.598              1.969              4.195
 Vibration     3          0.599              1.966              4.015
 Vibration     4          0.616              1.909              2.754
 Vibration     5          0.644              1.819              2.007
 Vibration     6          0.658              1.778              1.795
 Vibration     7          0.664              1.758              1.713
 Vibration     8          0.679              1.715              1.548
 Vibration     9          0.722              1.590              1.200
 Vibration    10          0.738              1.544              1.101
 Vibration    11          0.772              1.454              0.935
 Vibration    12          0.790              1.408              0.863
 Vibration    13          0.804              1.372              0.811
 Vibration    14          0.825              1.321              0.743
 Vibration    15          0.841              1.283              0.696
 Vibration    16          0.863              1.232              0.638
 Vibration    17          0.914              1.121              0.527
 Vibration    18          0.968              1.012              0.434

 Optimization completed.
    -- Stationary point found.
 Normal termination of Gaussian 16 at Sat Mar  9 08:33:17 2019.
