 Gaussian 16, Revision B.01,
 Gaussian 16:  ES64L-G16RevB.01 20-Dec-2017

 ----------------------------------------------------------------------
 #M062X/6-311++G(2d,2p) opt=ModRedundant freq=noraman SCRF=(SMD,solvent
 =water)
 ----------------------------------------------------------------------

 -------------------------------
 4c1_b1_e3_4c1_PHI.inp_extract_6
 -------------------------------
 Symbolic Z-matrix:
 Charge =  0 Multiplicity = 1

 SCF Done:  E(RM062X) =  -617.498429139     A.U. after   12 cycles
 SCF Done:  E(RM062X) =  -617.499932887     A.U. after   10 cycles
 SCF Done:  E(RM062X) =  -617.500051844     A.U. after   10 cycles
 SCF Done:  E(RM062X) =  -617.500132610     A.U. after    9 cycles
 SCF Done:  E(RM062X) =  -617.500134491     A.U. after    7 cycles
 Optimization completed.
    -- Stationary point found.
 Normal termination of Gaussian 16 at Sat Mar  9 06:24:40 2019.

 ----------------------------------------------------------------------
 #N Geom=AllCheck Guess=TCheck SCRF=Check GenChk RM062X/6-311++G(2d,2p)
  Freq
 ----------------------------------------------------------------------

 Structure from the checkpoint file:  "4c1_b1_e3_4c1_PHI.inp_extract_6.chk"
 -------------------------------
 4c1_b1_e3_4c1_PHI.inp_extract_6
 -------------------------------
 Charge =  0 Multiplicity = 1

                         Standard orientation:
 ---------------------------------------------------------------------
 Center     Atomic      Atomic             Coordinates (Angstroms)
 Number     Number       Type             X           Y           Z
 ---------------------------------------------------------------------
      1          6           0        1.660627    0.889444   -0.763704
      2          6           0        3.370632   -0.750572    0.825491
      3          6           0       -2.294161   -1.335883   -0.091432
      4          6           0        1.069249   -0.285698    0.004497
      5          6           0        2.132884   -1.356223    0.181941
      6          8           0       -1.295970    0.843477    0.171458
      7          6           0       -3.692918   -0.724572   -0.027726
      8          8           0        3.883790    0.329913    0.053189
      9          6           0       -3.645919    0.589598    0.748215
     10          6           0       -1.310343   -0.317185   -0.632454
     11          6           0       -2.571238    1.491474    0.168427
     12          6           0        2.924515    1.375208   -0.070205
     13          8           0       -0.018129   -0.890946   -0.697263
     14          1           0        1.907231    0.558674   -1.775520
     15          1           0        0.945763    1.708344   -0.834472
     16          1           0        4.169281   -1.484964    0.901478
     17          1           0        3.134507   -0.389041    1.832736
     18          1           0       -1.954442   -1.625848    0.906305
     19          1           0       -2.273216   -2.218764   -0.730340
     20          1           0        0.737994    0.047078    0.989385
     21          1           0        1.755568   -2.166531    0.806509
     22          1           0        2.395424   -1.768195   -0.795161
     23          1           0       -4.392254   -1.422981    0.429929
     24          1           0       -4.046997   -0.530294   -1.043744
     25          1           0       -3.416289    0.394717    1.798176
     26          1           0       -4.604895    1.106728    0.706389
     27          1           0       -1.593981   -0.021388   -1.651441
     28          1           0       -2.823979    1.771281   -0.860253
     29          1           0       -2.444778    2.399262    0.753655
     30          1           0        2.684949    1.759342    0.927993
     31          1           0        3.402613    2.169491   -0.639006
 ---------------------------------------------------------------------

 SCF Done:  E(RM062X) =  -617.500134491     A.U. after    1 cycles

 The electronic state is 1-A.
 Alpha  occ. eigenvalues --  -19.63252 -19.62843 -19.62795 -10.63340 -10.58314
 Alpha  occ. eigenvalues --  -10.57672 -10.57562 -10.57511 -10.52487 -10.52386
 Alpha  occ. eigenvalues --  -10.52277 -10.52225 -10.52106  -1.19619  -1.16094
 Alpha  occ. eigenvalues --   -1.13374  -0.90707  -0.89323  -0.85972  -0.84522
 Alpha  occ. eigenvalues --   -0.75197  -0.73078  -0.71923  -0.69401  -0.65859
 Alpha  occ. eigenvalues --   -0.64109  -0.60008  -0.57711  -0.55512  -0.54825
 Alpha  occ. eigenvalues --   -0.54262  -0.52370  -0.51995  -0.50918  -0.49767
 Alpha  occ. eigenvalues --   -0.48703  -0.46681  -0.45633  -0.44780  -0.44072
 Alpha  occ. eigenvalues --   -0.42884  -0.41370  -0.40721  -0.39771  -0.39150
 Alpha  occ. eigenvalues --   -0.38416  -0.37258  -0.36696  -0.34687  -0.33235
 Alpha  occ. eigenvalues --   -0.30819
 Alpha virt. eigenvalues --    0.00451   0.01256   0.01356   0.01468   0.02723
 Alpha virt. eigenvalues --    0.02862   0.03002   0.03884   0.03960   0.04779
 Alpha virt. eigenvalues --    0.05274   0.05482   0.05759   0.05906   0.07276

 Mulliken charges:
               1
     1  C   -0.131639
     2  C   -0.309303
     3  C   -0.059953
     4  C   -0.226928
     5  C   -0.180226
     6  O   -0.346059
     7  C   -0.455523
     8  O   -0.369400
     9  C   -0.265021
    10  C   -0.225276
    11  C   -0.195429
    12  C   -0.345992
    13  O   -0.368554
    14  H    0.203812
    15  H    0.182436
    16  H    0.227066
    17  H    0.162258
    18  H    0.170506
    19  H    0.185573
    20  H    0.278019
    21  H    0.172392
    22  H    0.196444
    23  H    0.186316
    24  H    0.182434
    25  H    0.158568
    26  H    0.180863
    27  H    0.246658
    28  H    0.169507
    29  H    0.195380
    30  H    0.169398
    31  H    0.211671
 Sum of Mulliken charges =  -0.00000

 Dipole moment (field-independent basis, Debye):
    X=             -4.3860    Y=              0.9408    Z=              1.1999  Tot=              4.6435
 Quadrupole moment (field-independent basis, Debye-Ang):
   XX=            -81.8055   YY=            -76.7444   ZZ=            -78.6910
   XY=             -3.2621   XZ=              3.8401   YZ=             -2.6957

  Exact polarizability: 183.188  -3.025 176.410   1.958   0.092 168.027
 Approx polarizability: 146.165  -2.382 144.288   1.134   0.777 141.680

 ******    1 imaginary frequencies (negative Signs) ******

                      1                      2                      3
                      A                      A                      A
 Frequencies --    -79.4619                58.1385                82.1229
 Red. masses --      4.2187                 3.1864                 4.3721
 Frc consts  --      0.0157                 0.0063                 0.0174
 IR Inten    --      7.0176                 0.3335                 0.5536

                      4                      5                      6
                      A                      A                      A
 Frequencies --    148.8198               197.3944               240.9574
 Red. masses --      3.2738                 3.5947                 2.0807
 Frc consts  --      0.0427                 0.0825                 0.0712
 IR Inten    --      2.9123                 9.8125                 5.2888

                      7                      8                      9
                      A                      A                      A
 Frequencies --    249.1706               267.7789               295.0017
 Red. masses --      2.1330                 3.5341                 4.2255
 Frc consts  --      0.0780                 0.1493                 0.2167
 IR Inten    --      1.7824                 4.9697                 6.5440

                     10                     11                     12
                      A                      A                      A
 Frequencies --    354.8362               369.5098               441.1177
 Red. masses --      1.8962                 2.2798                 2.9176
 Frc consts  --      0.1407                 0.1834                 0.3345
 IR Inten    --      0.7232                13.1259                 3.7858

                     13                     14                     15
                      A                      A                      A
 Frequencies --    452.5091               477.6499               482.3390
 Red. masses --      3.0089                 3.2643                 2.4229
 Frc consts  --      0.3630                 0.4388                 0.3321
 IR Inten    --      0.2717                 2.1816                 2.3591

                     16                     17                     18
                      A                      A                      A
 Frequencies --    507.7692               553.0436               617.6733
 Red. masses --      3.4890                 1.8604                 2.3789
 Frc consts  --      0.5300                 0.3353                 0.5347
 IR Inten    --      8.3481                15.5193                11.2465

                     19                     20                     21
                      A                      A                      A
 Frequencies --    657.8784               829.1792               839.4963
 Red. masses --      3.1887                 1.5024                 1.9181
 Frc consts  --      0.8131                 0.6086                 0.7964
 IR Inten    --     24.8396                 2.7400                 2.9712

                     22                     23                     24
                      A                      A                      A
 Frequencies --    844.8570               854.2787               881.4754
 Red. masses --      2.7437                 1.6437                 2.2189
 Frc consts  --      1.1539                 0.7068                 1.0158
 IR Inten    --     17.7369                23.8202                 1.2587

                     25                     26                     27
                      A                      A                      A
 Frequencies --    896.7095               933.9398               949.3619
 Red. masses --      2.4385                 1.8548                 2.1813
 Frc consts  --      1.1552                 0.9532                 1.1583
 IR Inten    --     23.7001                 1.3689                18.9235

                     28                     29                     30
                      A                      A                      A
 Frequencies --    959.0867               978.0090              1003.0521
 Red. masses --      1.9360                 2.1171                 1.4425
 Frc consts  --      1.0492                 1.1931                 0.8551
 IR Inten    --      6.5847                20.1267                17.0513

                     31                     32                     33
                      A                      A                      A
 Frequencies --   1012.2548              1033.4807              1064.6131
 Red. masses --      1.9758                 2.0235                 1.5044
 Frc consts  --      1.1928                 1.2734                 1.0046
 IR Inten    --     38.8270                38.0171                37.0805

                     34                     35                     36
                      A                      A                      A
 Frequencies --   1071.8307              1103.6572              1130.0710
 Red. masses --      2.6772                 3.0622                 3.0716
 Frc consts  --      1.8121                 2.1976                 2.3112
 IR Inten    --     14.7980               119.3779                63.3348

                     37                     38                     39
                      A                      A                      A
 Frequencies --   1152.3277              1159.7353              1165.0612
 Red. masses --      2.6493                 2.3401                 2.4273
 Frc consts  --      2.0727                 1.8544                 1.9412
 IR Inten    --     93.0425                31.9794                61.8096

                     40                     41                     42
                      A                      A                      A
 Frequencies --   1185.3973              1194.7209              1199.2424
 Red. masses --      1.7037                 1.7673                 1.4975
 Frc consts  --      1.4105                 1.4863                 1.2689
 IR Inten    --     44.7094                74.1702                30.9591

                     43                     44                     45
                      A                      A                      A
 Frequencies --   1231.3079              1249.4787              1269.3478
 Red. masses --      5.0809                 1.7564                 1.3153
 Frc consts  --      4.5387                 1.6156                 1.2486
 IR Inten    --    525.4264                98.9107                21.3490

                     46                     47                     48
                      A                      A                      A
 Frequencies --   1277.3313              1280.9800              1319.7285
 Red. masses --      1.2642                 1.2786                 1.3719
 Frc consts  --      1.2153                 1.2361                 1.4078
 IR Inten    --      6.6042                20.6206                17.6610

                     49                     50                     51
                      A                      A                      A
 Frequencies --   1323.6510              1336.3024              1349.5570
 Red. masses --      1.3169                 1.2991                 1.3146
 Frc consts  --      1.3594                 1.3667                 1.4107
 IR Inten    --     55.7748                 7.1024                 3.7077

                     52                     53                     54
                      A                      A                      A
 Frequencies --   1358.7842              1367.4834              1386.3014
 Red. masses --      1.1643                 1.4191                 1.4887
 Frc consts  --      1.2665                 1.5636                 1.6856
 IR Inten    --      8.7947                 1.1796                 7.6063

                     55                     56                     57
                      A                      A                      A
 Frequencies --   1386.6824              1398.3064              1402.9774
 Red. masses --      1.3968                 1.3535                 1.4948
 Frc consts  --      1.5825                 1.5593                 1.7335
 IR Inten    --      2.8412                36.7378                63.9560

                     58                     59                     60
                      A                      A                      A
 Frequencies --   1408.1935              1427.8084              1431.9133
 Red. masses --      1.3502                 1.3462                 1.4286
 Frc consts  --      1.5775                 1.6169                 1.7258
 IR Inten    --     20.2294                 2.9202                18.6443

                     61                     62                     63
                      A                      A                      A
 Frequencies --   1435.9942              1467.2295              1469.4111
 Red. masses --      1.4070                 1.1000                 1.1169
 Frc consts  --      1.7095                 1.3952                 1.4209
 IR Inten    --     42.9676                 5.1325                 2.2971

                     64                     65                     66
                      A                      A                      A
 Frequencies --   1472.2819              1480.8274              1489.0634
 Red. masses --      1.0902                 1.1227                 1.1210
 Frc consts  --      1.3923                 1.4506                 1.4645
 IR Inten    --      9.7944                 7.6268                24.8643

                     67                     68                     69
                      A                      A                      A
 Frequencies --   1498.6949              1506.2206              1507.0147
 Red. masses --      1.0833                 1.1023                 1.1020
 Frc consts  --      1.4336                 1.4734                 1.4746
 IR Inten    --      3.2440                 8.7325                 9.1539

                     70                     71                     72
                      A                      A                      A
 Frequencies --   3010.1164              3033.5333              3035.2236
 Red. masses --      1.0835                 1.0702                 1.0703
 Frc consts  --      5.7843                 5.8026                 5.8096
 IR Inten    --     98.6416                57.9511                85.3236

                     73                     74                     75
                      A                      A                      A
 Frequencies --   3039.8837              3060.2358              3066.6331
 Red. masses --      1.0699                 1.0686                 1.0622
 Frc consts  --      5.8253                 5.8960                 5.8854
 IR Inten    --     71.4429                18.8490                44.5157

                     76                     77                     78
                      A                      A                      A
 Frequencies --   3069.8343              3070.7200              3071.0690
 Red. masses --      1.0615                 1.0615                 1.0661
 Frc consts  --      5.8940                 5.8973                 5.9244
 IR Inten    --     14.8267                52.2394                26.1478

                     79                     80                     81
                      A                      A                      A
 Frequencies --   3091.1875              3118.1203              3121.8729
 Red. masses --      1.0815                 1.0962                 1.1023
 Frc consts  --      6.0885                 6.2795                 6.3298
 IR Inten    --     49.1835                39.1547                52.4733

                     82                     83                     84
                      A                      A                      A
 Frequencies --   3124.3860              3125.4414              3136.6182
 Red. masses --      1.1029                 1.1033                 1.0994
 Frc consts  --      6.3435                 6.3500                 6.3728
 IR Inten    --     64.4278                49.3809                41.8304

                     85                     86                     87
                      A                      A                      A
 Frequencies --   3140.2418              3142.2588              3143.8289
 Red. masses --      1.0955                 1.0958                 1.0964
 Frc consts  --      6.3651                 6.3745                 6.3846
 IR Inten    --     38.3821                34.7455                37.0669

 - Thermochemistry -
 -------------------
 Temperature   298.150 Kelvin.  Pressure   1.00000 Atm.
 Atom     1 has atomic number  6 and mass  12.00000

 Molecular mass:   186.12559 amu.
 Principal axes and moments of inertia in atomic units:
                           1         2         3
     Eigenvalues --   883.048894669.585345138.80012
           X            1.00000  -0.00118   0.00158
           Y            0.00121   0.99980  -0.01973
           Z           -0.00156   0.01974   0.99980
 This molecule is an asymmetric top.
 Rotational symmetry number  1.
 Warning -- assumption of classical behavior for rotation
           may cause significant error
 Rotational temperatures (Kelvin)      0.09809     0.01855     0.01685
 Rotational constants (GHZ):           2.04376     0.38649     0.35120
    1 imaginary frequencies ignored.
 Zero-point vibrational energy     735880.6 (Joules/Mol)
                                  175.87968 (Kcal/Mol)
 Warning -- explicit consideration of  17 degrees of freedom as
           vibrations may cause significant error
 Vibrational temperatures:     83.65   118.16   214.12   284.01   346.68
          (Kelvin)            358.50   385.27   424.44   510.53   531.64
                              634.67   651.06   687.23   693.98   730.57
                              795.71   888.69   946.54  1193.00  1207.85
                             1215.56  1229.12  1268.25  1290.16  1343.73
                             1365.92  1379.91  1407.14  1443.17  1456.41
                             1486.95  1531.74  1542.13  1587.92  1625.92
                             1657.94  1668.60  1676.26  1705.52  1718.94
                             1725.44  1771.58  1797.72  1826.31  1837.79
                             1843.04  1898.79  1904.44  1922.64  1941.71
                             1954.99  1967.50  1994.58  1995.13  2011.85
                             2018.57  2026.08  2054.30  2060.20  2066.08
                             2111.02  2114.15  2118.29  2130.58  2142.43
                             2156.29  2167.12  2168.26  4330.89  4364.58
                             4367.01  4373.71  4403.00  4412.20  4416.81
                             4418.08  4418.58  4447.53  4486.28  4491.68
                             4495.29  4496.81  4512.89  4518.11  4521.01
                             4523.27

 Zero-point correction=                           0.280282 (Hartree/Particle)
 Thermal correction to Energy=                    0.291279
 Thermal correction to Enthalpy=                  0.292223
 Thermal correction to Gibbs Free Energy=         0.243389
 Sum of electronic and zero-point Energies=           -617.219852
 Sum of electronic and thermal Energies=              -617.208856
 Sum of electronic and thermal Enthalpies=            -617.207911
 Sum of electronic and thermal Free Energies=         -617.256746

                     E (Thermal)             CV                S
                      KCal/Mol        Cal/Mol-Kelvin    Cal/Mol-Kelvin
 Total                  182.780             45.006            102.781
 Electronic               0.000              0.000              0.000
 Translational            0.889              2.981             41.570
 Rotational               0.889              2.981             31.428
 Vibrational            181.003             39.044             29.784
 Vibration     1          0.596              1.974              4.519
 Vibration     2          0.600              1.961              3.839
 Vibration     3          0.618              1.904              2.687
 Vibration     4          0.637              1.844              2.157
 Vibration     5          0.658              1.778              1.796
 Vibration     6          0.662              1.764              1.736
 Vibration     7          0.673              1.732              1.611
 Vibration     8          0.689              1.683              1.445
 Vibration     9          0.731              1.565              1.145
 Vibration    10          0.742              1.535              1.082
 Vibration    11          0.801              1.380              0.823
 Vibration    12          0.811              1.355              0.788
 Vibration    13          0.834              1.300              0.716
 Vibration    14          0.839              1.289              0.704
 Vibration    15          0.863              1.233              0.639
 Vibration    16          0.908              1.133              0.538
 Vibration    17          0.977              0.995              0.420

                           ! Non-Optimized Parameters !
 Normal termination of Gaussian 16 at Sat Mar  9 07:26:56 2019.
