 Gaussian 16, Revision A.03,
 Gaussian 16:  ES64L-G16RevA.03 25-Dec-2016

 ----------------------------------------------------------------------
 #M062X/6-311++G(2d,2p) opt=ModRedundant freq=noraman SCRF=(Solvent=Wat
 er)
 ----------------------------------------------------------------------

 -----------------------------
 D_a1-4_2SO_PHI.inp_extract_20
 -----------------------------
 Symbolic Z-matrix:
 Charge =  0 Multiplicity = 1

 SCF Done:  E(RM062X) =  -617.485375033     A.U. after   12 cycles
 SCF Done:  E(RM062X) =  -617.486718778     A.U. after   12 cycles
 SCF Done:  E(RM062X) =  -617.487304775     A.U. after   11 cycles
 SCF Done:  E(RM062X) =  -617.487553588     A.U. after   10 cycles
 SCF Done:  E(RM062X) =  -617.487600086     A.U. after   10 cycles
 SCF Done:  E(RM062X) =  -617.487611129     A.U. after    8 cycles
 SCF Done:  E(RM062X) =  -617.487614331     A.U. after    8 cycles
 SCF Done:  E(RM062X) =  -617.487615112     A.U. after    8 cycles
 SCF Done:  E(RM062X) =  -617.487615277     A.U. after    7 cycles
 Optimization completed.
    -- Stationary point found.
 Normal termination of Gaussian 16 at Sun Nov  4 22:04:09 2018.

 ----------------------------------------------------------------------
 #N Geom=AllCheck Guess=TCheck SCRF=Check GenChk RM062X/6-311++G(2d,2p)
  Freq
 ----------------------------------------------------------------------

 Structure from the checkpoint file:  "D_a1-4_2SO_PHI.inp_extract_20.chk"
 -----------------------------
 D_a1-4_2SO_PHI.inp_extract_20
 -----------------------------
 Charge =  0 Multiplicity = 1

                         Standard orientation:
 ---------------------------------------------------------------------
 Center     Atomic      Atomic             Coordinates (Angstroms)
 Number     Number       Type             X           Y           Z
 ---------------------------------------------------------------------
      1          6           0        0.861208   -0.401879    0.215423
      2          6           0        3.565925    0.747063   -0.132848
      3          8           0       -1.705433   -1.008461    0.987441
      4          6           0        1.260619    1.080732    0.167620
      5          6           0        2.093913   -1.259806   -0.076244
      6          8           0       -0.136002   -0.678049   -0.761747
      7          6           0       -2.458521   -0.481630   -1.276054
      8          6           0       -2.722875    0.959472   -0.855117
      9          6           0       -1.429225   -1.147093   -0.377778
     10          6           0       -3.092206    0.979765    0.625550
     11          6           0       -1.985043    0.324315    1.429878
     12          6           0        3.318500   -0.603073    0.554257
     13          8           0        2.368283    1.287424   -0.688407
     14          1           0        0.483122   -0.640172    1.207920
     15          1           0        3.997711    1.468399    0.567375
     16          1           0        4.248104    0.629294   -0.973069
     17          1           0        0.437628    1.671291   -0.230088
     18          1           0        1.496515    1.445314    1.173848
     19          1           0        2.223217   -1.313311   -1.158423
     20          1           0        1.941695   -2.272994    0.292162
     21          1           0       -2.105628   -0.547549   -2.304303
     22          1           0       -3.382095   -1.059693   -1.202774
     23          1           0       -1.827210    1.563565   -1.018341
     24          1           0       -3.517683    1.390066   -1.462659
     25          1           0       -1.440129   -2.227926   -0.534275
     26          1           0       -3.235716    1.997940    0.987654
     27          1           0       -4.026044    0.435250    0.782913
     28          1           0       -2.252010    0.226014    2.479517
     29          1           0       -1.077795    0.932376    1.367898
     30          1           0        3.144913   -0.462585    1.622948
     31          1           0        4.202863   -1.229787    0.455278
 ---------------------------------------------------------------------

 SCF Done:  E(RM062X) =  -617.487615277     A.U. after    1 cycles

 The electronic state is 1-A.
 Alpha  occ. eigenvalues --  -19.63850 -19.62755 -19.62424 -10.63736 -10.58534
 Alpha  occ. eigenvalues --  -10.58378 -10.57995 -10.57943 -10.53252 -10.53208
 Alpha  occ. eigenvalues --  -10.53153 -10.53084 -10.52967  -1.19787  -1.16357
 Alpha  occ. eigenvalues --   -1.13121  -0.91028  -0.89947  -0.87350  -0.84213
 Alpha  occ. eigenvalues --   -0.74995  -0.74436  -0.73494  -0.70672  -0.64934
 Alpha  occ. eigenvalues --   -0.62631  -0.60034  -0.59145  -0.58112  -0.56443
 Alpha  occ. eigenvalues --   -0.54197  -0.53290  -0.52808  -0.50534  -0.49273
 Alpha  occ. eigenvalues --   -0.47831  -0.46208  -0.46177  -0.45336  -0.44982
 Alpha  occ. eigenvalues --   -0.43697  -0.42474  -0.41913  -0.40423  -0.39728
 Alpha  occ. eigenvalues --   -0.38733  -0.37228  -0.36195  -0.35377  -0.33625
 Alpha  occ. eigenvalues --   -0.30966
 Alpha virt. eigenvalues --   -0.00178   0.00723   0.00916   0.01099   0.02248
 Alpha virt. eigenvalues --    0.02511   0.02582   0.03311   0.03640   0.04475
 Alpha virt. eigenvalues --    0.04656   0.04839   0.05521   0.05904   0.07299

 Mulliken charges:
               1
     1  C   -0.257087
     2  C   -0.203505
     3  O   -0.279756
     4  C   -0.342441
     5  C   -0.257705
     6  O   -0.214613
     7  C   -0.258369
     8  C   -0.284204
     9  C   -0.125759
    10  C   -0.366793
    11  C   -0.143057
    12  C   -0.370923
    13  O   -0.331349
    14  H    0.276445
    15  H    0.162235
    16  H    0.174522
    17  H    0.244523
    18  H    0.217430
    19  H    0.192670
    20  H    0.169409
    21  H    0.180301
    22  H    0.193425
    23  H    0.146699
    24  H    0.195723
    25  H    0.238200
    26  H    0.180317
    27  H    0.172058
    28  H    0.207652
    29  H    0.124691
    30  H    0.176010
    31  H    0.183249
 Sum of Mulliken charges =   0.00000

 Dipole moment (field-independent basis, Debye):
    X=             -0.6554    Y=              0.3510    Z=              2.2646  Tot=              2.3835
 Quadrupole moment (field-independent basis, Debye-Ang):
   XX=            -70.3485   YY=            -82.1494   ZZ=            -81.7100
   XY=             -6.0972   XZ=              5.2322   YZ=              4.6964

  Exact polarizability: 174.964  -0.552 155.665   1.217   3.682 153.542
 Approx polarizability: 147.476   0.969 140.904  -0.528   1.522 143.120

 ******    1 imaginary frequencies (negative Signs) ******

                      1                      2                      3
                      A                      A                      A
 Frequencies --    -36.0990                58.1003                66.4350
 Red. masses --      4.5108                 3.0904                 3.2545
 Frc consts  --      0.0035                 0.0061                 0.0085
 IR Inten    --      5.2429                 1.0989                 3.0401

                      4                      5                      6
                      A                      A                      A
 Frequencies --    138.8565               171.8078               214.2985
 Red. masses --      3.3927                 2.6304                 2.2506
 Frc consts  --      0.0385                 0.0457                 0.0609
 IR Inten    --      2.6132                 1.4856                 4.2442

                      7                      8                      9
                      A                      A                      A
 Frequencies --    252.1275               278.6412               295.3176
 Red. masses --      4.0957                 2.8819                 2.3218
 Frc consts  --      0.1534                 0.1318                 0.1193
 IR Inten    --      3.5026                 2.7058                10.6494

                     10                     11                     12
                      A                      A                      A
 Frequencies --    352.4261               389.2972               422.4348
 Red. masses --      1.8699                 2.9858                 2.2668
 Frc consts  --      0.1368                 0.2666                 0.2383
 IR Inten    --      3.1117                18.9931                 4.8867

                     13                     14                     15
                      A                      A                      A
 Frequencies --    436.5946               460.3699               524.3252
 Red. masses --      3.0278                 3.3368                 3.0067
 Frc consts  --      0.3400                 0.4167                 0.4870
 IR Inten    --      4.9308                 0.5767                 1.4237

                     16                     17                     18
                      A                      A                      A
 Frequencies --    552.2251               593.1532               658.6343
 Red. masses --      3.1506                 2.8359                 2.2120
 Frc consts  --      0.5661                 0.5879                 0.5654
 IR Inten    --      8.0561                 0.6311                16.2293

                     19                     20                     21
                      A                      A                      A
 Frequencies --    721.8488               804.7449               829.5387
 Red. masses --      3.0741                 2.2472                 1.8453
 Frc consts  --      0.9438                 0.8575                 0.7481
 IR Inten    --      1.6665                 8.0970                 3.7780

                     22                     23                     24
                      A                      A                      A
 Frequencies --    841.4204               858.3921               893.4490
 Red. masses --      2.2957                 1.8947                 2.4166
 Frc consts  --      0.9576                 0.8225                 1.1366
 IR Inten    --      6.1312                 8.0157                 7.1532

                     25                     26                     27
                      A                      A                      A
 Frequencies --    904.7050               914.4152               922.4248
 Red. masses --      2.5219                 2.4679                 2.3688
 Frc consts  --      1.2162                 1.2158                 1.1875
 IR Inten    --     22.3015                23.3716                61.0868

                     28                     29                     30
                      A                      A                      A
 Frequencies --    927.6036               950.3302               973.7003
 Red. masses --      1.8045                 1.6924                 1.7877
 Frc consts  --      0.9148                 0.9005                 0.9986
 IR Inten    --      8.4681                 3.8872                27.5422

                     31                     32                     33
                      A                      A                      A
 Frequencies --   1029.6424              1044.5596              1062.3992
 Red. masses --      2.2714                 2.4305                 1.7456
 Frc consts  --      1.4188                 1.5624                 1.1608
 IR Inten    --     10.2282               121.6298               137.6094

                     34                     35                     36
                      A                      A                      A
 Frequencies --   1066.2975              1076.5533              1088.9239
 Red. masses --      1.6768                 2.1369                 2.4777
 Frc consts  --      1.1233                 1.4592                 1.7310
 IR Inten    --     17.2467                10.4095               237.5765

                     37                     38                     39
                      A                      A                      A
 Frequencies --   1130.1997              1144.7040              1150.3526
 Red. masses --      2.1229                 3.5091                 2.6799
 Frc consts  --      1.5977                 2.7091                 2.0894
 IR Inten    --     58.8579               130.2947                27.9154

                     40                     41                     42
                      A                      A                      A
 Frequencies --   1164.4437              1189.1362              1212.1794
 Red. masses --      2.7221                 2.8564                 1.4147
 Frc consts  --      2.1747                 2.3797                 1.2248
 IR Inten    --     23.2226               168.0495                 6.3756

                     43                     44                     45
                      A                      A                      A
 Frequencies --   1216.3218              1241.0307              1253.9616
 Red. masses --      1.4041                 1.8814                 1.4897
 Frc consts  --      1.2239                 1.7072                 1.3802
 IR Inten    --     17.5012                95.1335                43.4597

                     46                     47                     48
                      A                      A                      A
 Frequencies --   1290.3261              1291.3258              1326.0278
 Red. masses --      1.1798                 1.2125                 1.1581
 Frc consts  --      1.1574                 1.1913                 1.1998
 IR Inten    --     42.1910                 9.4240                12.2773

                     49                     50                     51
                      A                      A                      A
 Frequencies --   1334.2628              1344.1678              1358.9991
 Red. masses --      1.1756                 1.3206                 1.3292
 Frc consts  --      1.2331                 1.4058                 1.4464
 IR Inten    --     16.6185                 0.3332                 8.6702

                     52                     53                     54
                      A                      A                      A
 Frequencies --   1367.3238              1373.4524              1383.1006
 Red. masses --      1.4474                 1.3260                 1.3022
 Frc consts  --      1.5943                 1.4737                 1.4677
 IR Inten    --      0.5973                 9.7553                16.5512

                     55                     56                     57
                      A                      A                      A
 Frequencies --   1387.2812              1393.6201              1401.6066
 Red. masses --      1.4658                 1.7208                 1.2888
 Frc consts  --      1.6621                 1.9692                 1.4917
 IR Inten    --      1.7107                16.2156                 4.5642

                     58                     59                     60
                      A                      A                      A
 Frequencies --   1416.2884              1419.0575              1427.2834
 Red. masses --      1.3118                 1.3335                 1.3686
 Frc consts  --      1.5503                 1.5821                 1.6426
 IR Inten    --      0.8534                 7.3454                 2.5794

                     61                     62                     63
                      A                      A                      A
 Frequencies --   1449.7918              1474.8764              1483.9925
 Red. masses --      1.3250                 1.1013                 1.0886
 Frc consts  --      1.6409                 1.4115                 1.4125
 IR Inten    --     17.1262                 5.9350                 7.9879

                     64                     65                     66
                      A                      A                      A
 Frequencies --   1489.8321              1494.2892              1497.5351
 Red. masses --      1.0960                 1.1031                 1.1064
 Frc consts  --      1.4333                 1.4512                 1.4619
 IR Inten    --      1.8193                 6.9542                24.9840

                     67                     68                     69
                      A                      A                      A
 Frequencies --   1502.3667              1516.8969              1518.0543
 Red. masses --      1.0790                 1.0979                 1.0945
 Frc consts  --      1.4349                 1.4884                 1.4860
 IR Inten    --      3.9466                 5.4105                 0.8128

                     70                     71                     72
                      A                      A                      A
 Frequencies --   3027.7941              3040.2549              3060.8590
 Red. masses --      1.0700                 1.0681                 1.0735
 Frc consts  --      5.7794                 5.8170                 5.9255
 IR Inten    --     67.7480                91.4165                75.1910

                     73                     74                     75
                      A                      A                      A
 Frequencies --   3063.1203              3067.1163              3071.2390
 Red. masses --      1.0752                 1.0648                 1.0628
 Frc consts  --      5.9441                 5.9019                 5.9064
 IR Inten    --     13.2243                33.4412                37.5508

                     76                     77                     78
                      A                      A                      A
 Frequencies --   3071.9362              3078.7244              3081.3423
 Red. masses --      1.0687                 1.0678                 1.0605
 Frc consts  --      5.9421                 5.9635                 5.9323
 IR Inten    --     28.1059                77.0442                49.0273

                     79                     80                     81
                      A                      A                      A
 Frequencies --   3116.3659              3117.1610              3117.5544
 Red. masses --      1.0955                 1.0887                 1.0960
 Frc consts  --      6.2683                 6.2330                 6.2760
 IR Inten    --     16.0779                10.5719                38.6548

                     82                     83                     84
                      A                      A                      A
 Frequencies --   3121.0164              3131.2874              3133.5046
 Red. masses --      1.1019                 1.1009                 1.0986
 Frc consts  --      6.3241                 6.3597                 6.3557
 IR Inten    --     70.1443                38.5172                75.7053

                     85                     86                     87
                      A                      A                      A
 Frequencies --   3134.5697              3136.9004              3138.6446
 Red. masses --      1.0994                 1.0969                 1.0986
 Frc consts  --      6.3642                 6.3593                 6.3763
 IR Inten    --     50.9997                19.7545                30.7676

 - Thermochemistry -
 -------------------
 Temperature   298.150 Kelvin.  Pressure   1.00000 Atm.
 Atom     1 has atomic number  6 and mass  12.00000

 Molecular mass:   186.12559 amu.
 Principal axes and moments of inertia in atomic units:
                           1         2         3
     Eigenvalues --  1056.719383982.820914150.17613
           X            0.99984  -0.01587   0.00853
           Y            0.01499   0.99540   0.09461
           Z           -0.00999  -0.09446   0.99548
 This molecule is an asymmetric top.
 Rotational symmetry number  1.
 Warning -- assumption of classical behavior for rotation
           may cause significant error
 Rotational temperatures (Kelvin)      0.08196     0.02175     0.02087
 Rotational constants (GHZ):           1.70787     0.45313     0.43486
    1 imaginary frequencies ignored.
 Zero-point vibrational energy     736477.8 (Joules/Mol)
                                  176.02242 (Kcal/Mol)
 Warning -- explicit consideration of  16 degrees of freedom as
           vibrations may cause significant error
 Vibrational temperatures:     83.59    95.59   199.78   247.19   308.33
          (Kelvin)            362.76   400.90   424.90   507.06   560.11
                              607.79   628.16   662.37   754.39   794.53
                              853.42   947.63  1038.58  1157.85  1193.52
                             1210.62  1235.03  1285.47  1301.67  1315.64
                             1327.16  1334.61  1367.31  1400.94  1481.43
                             1502.89  1528.56  1534.16  1548.92  1566.72
                             1626.11  1646.97  1655.10  1675.37  1710.90
                             1744.06  1750.02  1785.57  1804.17  1856.49
                             1857.93  1907.86  1919.71  1933.96  1955.30
                             1967.27  1976.09  1989.97  1995.99  2005.11
                             2016.60  2037.72  2041.71  2053.54  2085.93
                             2122.02  2135.13  2143.54  2149.95  2154.62
                             2161.57  2182.48  2184.14  4356.32  4374.25
                             4403.89  4407.15  4412.90  4418.83  4419.83
                             4429.60  4433.36  4483.76  4484.90  4485.47
                             4490.45  4505.22  4508.41  4509.95  4513.30
                             4515.81

 Zero-point correction=                           0.280510 (Hartree/Particle)
 Thermal correction to Energy=                    0.291547
 Thermal correction to Enthalpy=                  0.292491
 Thermal correction to Gibbs Free Energy=         0.243419
 Sum of electronic and zero-point Energies=           -617.207106
 Sum of electronic and thermal Energies=              -617.196068
 Sum of electronic and thermal Enthalpies=            -617.195124
 Sum of electronic and thermal Free Energies=         -617.244196

                     E (Thermal)             CV                S
                      KCal/Mol        Cal/Mol-Kelvin    Cal/Mol-Kelvin
 Total                  182.948             44.909            103.281
 Electronic               0.000              0.000              0.000
 Translational            0.889              2.981             41.570
 Rotational               0.889              2.981             31.236
 Vibrational            181.171             38.948             30.475
 Vibration     1          0.596              1.974              4.521
 Vibration     2          0.598              1.970              4.256
 Vibration     3          0.614              1.914              2.820
 Vibration     4          0.626              1.877              2.416
 Vibration     5          0.644              1.819              2.007
 Vibration     6          0.664              1.759              1.716
 Vibration     7          0.679              1.713              1.542
 Vibration     8          0.690              1.682              1.443
 Vibration     9          0.729              1.570              1.155
 Vibration    10          0.757              1.493              1.003
 Vibration    11          0.785              1.421              0.884
 Vibration    12          0.797              1.390              0.837
 Vibration    13          0.818              1.338              0.765
 Vibration    14          0.879              1.196              0.600
 Vibration    15          0.908              1.135              0.540
 Vibration    16          0.951              1.046              0.462

 Optimization completed.
    -- Stationary point found.
 Normal termination of Gaussian 16 at Sun Nov  4 23:04:32 2018.
