 Gaussian 16, Revision A.03,
 Gaussian 16:  ES64L-G16RevA.03 25-Dec-2016

 ----------------------------------------------------------------------
 #M062X/6-311++G(2d,2p) opt=ModRedundant freq=noraman SCRF=(Solvent=Wat
 er)
 ----------------------------------------------------------------------

 -----------------------------
 D_a1-4_2SO_PHI.inp_extract_10
 -----------------------------
 Symbolic Z-matrix:
 Charge =  0 Multiplicity = 1

 SCF Done:  E(RM062X) =  -617.485272543     A.U. after   12 cycles
 SCF Done:  E(RM062X) =  -617.486248294     A.U. after   11 cycles
 SCF Done:  E(RM062X) =  -617.486951903     A.U. after   10 cycles
 SCF Done:  E(RM062X) =  -617.487124566     A.U. after    9 cycles
 SCF Done:  E(RM062X) =  -617.487156170     A.U. after    9 cycles
 SCF Done:  E(RM062X) =  -617.487163542     A.U. after    9 cycles
 SCF Done:  E(RM062X) =  -617.487164721     A.U. after    8 cycles
 SCF Done:  E(RM062X) =  -617.487165936     A.U. after    8 cycles
 SCF Done:  E(RM062X) =  -617.487166039     A.U. after    6 cycles
 Optimization completed.
    -- Stationary point found.
 Normal termination of Gaussian 16 at Sun Nov  4 22:08:25 2018.

 ----------------------------------------------------------------------
 #N Geom=AllCheck Guess=TCheck SCRF=Check GenChk RM062X/6-311++G(2d,2p)
  Freq
 ----------------------------------------------------------------------

 Structure from the checkpoint file:  "D_a1-4_2SO_PHI.inp_extract_10.chk"
 -----------------------------
 D_a1-4_2SO_PHI.inp_extract_10
 -----------------------------
 Charge =  0 Multiplicity = 1

                         Standard orientation:
 ---------------------------------------------------------------------
 Center     Atomic      Atomic             Coordinates (Angstroms)
 Number     Number       Type             X           Y           Z
 ---------------------------------------------------------------------
      1          6           0       -0.801716    0.105824    0.144325
      2          6           0       -3.755616    0.016844    0.059052
      3          8           0        2.351998   -0.102848   -1.369042
      4          6           0       -1.716083   -1.119357    0.310233
      5          6           0       -1.652822    1.328053   -0.189888
      6          8           0        0.118583   -0.059822   -0.924785
      7          6           0        1.674866   -1.246808    0.652676
      8          6           0        2.282420   -0.126630    1.503141
      9          6           0        1.303957   -0.824753   -0.771982
     10          6           0        3.352175    0.619168    0.710110
     11          6           0        2.769450    1.039651   -0.625357
     12          6           0       -2.973931    1.236101    0.567508
     13          8           0       -2.890080   -0.987725   -0.467495
     14          1           0       -0.277313    0.279526    1.082329
     15          1           0       -4.367379   -0.414344    0.856951
     16          1           0       -4.408965    0.298152   -0.765020
     17          1           0       -1.207471   -2.017820   -0.035194
     18          1           0       -1.978248   -1.257272    1.365396
     19          1           0       -1.844902    1.324858   -1.263898
     20          1           0       -1.108526    2.239911    0.049638
     21          1           0        0.822356   -1.709394    1.149519
     22          1           0        2.424399   -2.030839    0.529949
     23          1           0        1.520046    0.589057    1.814567
     24          1           0        2.700339   -0.555229    2.413610
     25          1           0        1.197141   -1.714566   -1.393257
     26          1           0        3.701853    1.495535    1.255980
     27          1           0        4.212606   -0.029494    0.531050
     28          1           0        3.503061    1.545066   -1.249011
     29          1           0        1.917673    1.711699   -0.479183
     30          1           0       -2.774641    1.144846    1.636922
     31          1           0       -3.572239    2.134907    0.431320
 ---------------------------------------------------------------------

 SCF Done:  E(RM062X) =  -617.487166039     A.U. after    1 cycles

 The electronic state is 1-A.
 Alpha  occ. eigenvalues --  -19.63025 -19.62896 -19.62861 -10.63882 -10.58952
 Alpha  occ. eigenvalues --  -10.58084 -10.58070 -10.57822 -10.53757 -10.53468
 Alpha  occ. eigenvalues --  -10.53391 -10.53268 -10.52971  -1.19751  -1.16462
 Alpha  occ. eigenvalues --   -1.13286  -0.90433  -0.90406  -0.86876  -0.84923
 Alpha  occ. eigenvalues --   -0.75482  -0.74582  -0.73410  -0.70545  -0.65064
 Alpha  occ. eigenvalues --   -0.62786  -0.59717  -0.58951  -0.58088  -0.57298
 Alpha  occ. eigenvalues --   -0.54908  -0.53017  -0.52651  -0.50500  -0.49663
 Alpha  occ. eigenvalues --   -0.48230  -0.46825  -0.45626  -0.45395  -0.44958
 Alpha  occ. eigenvalues --   -0.43978  -0.42706  -0.41495  -0.39915  -0.39566
 Alpha  occ. eigenvalues --   -0.38610  -0.37477  -0.36862  -0.35591  -0.33202
 Alpha  occ. eigenvalues --   -0.31423
 Alpha virt. eigenvalues --   -0.00240   0.00729   0.00933   0.01066   0.02219
 Alpha virt. eigenvalues --    0.02506   0.02739   0.03365   0.03574   0.04466
 Alpha virt. eigenvalues --    0.04609   0.04909   0.05548   0.06080   0.07243

 Mulliken charges:
               1
     1  C   -0.109170
     2  C   -0.226035
     3  O   -0.253158
     4  C   -0.368962
     5  C   -0.153522
     6  O   -0.331274
     7  C   -0.292544
     8  C   -0.305739
     9  C   -0.153585
    10  C   -0.308457
    11  C   -0.225101
    12  C   -0.354524
    13  O   -0.335318
    14  H    0.207167
    15  H    0.166942
    16  H    0.175164
    17  H    0.212615
    18  H    0.204391
    19  H    0.201319
    20  H    0.165472
    21  H    0.181447
    22  H    0.233945
    23  H    0.170209
    24  H    0.184190
    25  H    0.262252
    26  H    0.163342
    27  H    0.171380
    28  H    0.221497
    29  H    0.136856
    30  H    0.179165
    31  H    0.180037
 Sum of Mulliken charges =  -0.00000

 Dipole moment (field-independent basis, Debye):
    X=              0.1631    Y=              1.2446    Z=              5.1027  Tot=              5.2548
 Quadrupole moment (field-independent basis, Debye-Ang):
   XX=            -77.2699   YY=            -76.9538   ZZ=            -85.1849
   XY=             -4.3348   XZ=              0.9017   YZ=             -1.6770

  Exact polarizability: 175.299  -0.494 157.119  -1.326  -0.553 151.119
 Approx polarizability: 147.770  -1.520 142.178  -1.232   0.992 141.506

 ******    1 imaginary frequencies (negative Signs) ******

                      1                      2                      3
                      A                      A                      A
 Frequencies --    -41.4942                53.4462                66.0843
 Red. masses --      3.9449                 3.3724                 3.1166
 Frc consts  --      0.0040                 0.0057                 0.0080
 IR Inten    --      1.1366                 0.5723                 0.3736

                      4                      5                      6
                      A                      A                      A
 Frequencies --    144.9271               175.8829               211.8640
 Red. masses --      4.1898                 2.4813                 2.4863
 Frc consts  --      0.0518                 0.0452                 0.0658
 IR Inten    --      2.6257                 6.4233                 1.0689

                      7                      8                      9
                      A                      A                      A
 Frequencies --    228.2800               286.0279               308.0820
 Red. masses --      2.8187                 3.0016                 2.4260
 Frc consts  --      0.0865                 0.1447                 0.1357
 IR Inten    --      6.3637                 4.1425                 3.3424

                     10                     11                     12
                      A                      A                      A
 Frequencies --    359.6139               391.5965               437.1485
 Red. masses --      2.1085                 2.5352                 2.8421
 Frc consts  --      0.1607                 0.2291                 0.3200
 IR Inten    --      3.8362                12.2057                 4.6357

                     13                     14                     15
                      A                      A                      A
 Frequencies --    443.1432               450.5727               531.7403
 Red. masses --      3.0904                 2.8972                 2.3317
 Frc consts  --      0.3576                 0.3465                 0.3884
 IR Inten    --      2.5466                 1.6876                 2.2275

                     16                     17                     18
                      A                      A                      A
 Frequencies --    555.1383               583.0564               660.8835
 Red. masses --      3.6295                 2.6895                 2.3154
 Frc consts  --      0.6590                 0.5387                 0.5958
 IR Inten    --      9.6838                 2.3041                15.1249

                     19                     20                     21
                      A                      A                      A
 Frequencies --    723.9140               803.2010               829.7437
 Red. masses --      2.8590                 2.3790                 1.8225
 Frc consts  --      0.8828                 0.9043                 0.7393
 IR Inten    --      3.5727                 8.4891                 8.1095

                     22                     23                     24
                      A                      A                      A
 Frequencies --    837.8413               863.2842               892.8755
 Red. masses --      2.4546                 2.0528                 2.2562
 Frc consts  --      1.0152                 0.9014                 1.0598
 IR Inten    --      7.5851                13.1839                 8.4713

                     25                     26                     27
                      A                      A                      A
 Frequencies --    902.6751               915.6931               919.0458
 Red. masses --      2.4623                 2.4966                 2.3030
 Frc consts  --      1.1821                 1.2334                 1.1461
 IR Inten    --     45.3306                18.5468                55.4870

                     28                     29                     30
                      A                      A                      A
 Frequencies --    930.7646               955.5304               975.6865
 Red. masses --      1.7877                 1.7908                 1.9224
 Frc consts  --      0.9125                 0.9634                 1.0782
 IR Inten    --     18.8200                 1.2175                36.1093

                     31                     32                     33
                      A                      A                      A
 Frequencies --   1023.7707              1045.7460              1067.2739
 Red. masses --      2.2142                 2.2713                 1.7923
 Frc consts  --      1.3673                 1.4634                 1.2029
 IR Inten    --     18.3457                80.4316                62.3017

                     34                     35                     36
                      A                      A                      A
 Frequencies --   1068.9756              1071.6674              1087.6026
 Red. masses --      1.9863                 1.8221                 1.9937
 Frc consts  --      1.3373                 1.2329                 1.3895
 IR Inten    --     93.8821                84.1525               124.3912

                     37                     38                     39
                      A                      A                      A
 Frequencies --   1133.5976              1146.1723              1152.5860
 Red. masses --      2.1305                 3.0839                 3.0045
 Frc consts  --      1.6131                 2.3870                 2.3516
 IR Inten    --     79.5743               122.2291                66.3951

                     40                     41                     42
                      A                      A                      A
 Frequencies --   1176.4664              1189.6920              1216.0093
 Red. masses --      2.5536                 3.6586                 1.4492
 Frc consts  --      2.0824                 3.0509                 1.2625
 IR Inten    --     39.0953               111.7416                23.4414

                     43                     44                     45
                      A                      A                      A
 Frequencies --   1219.1347              1241.6979              1256.1527
 Red. masses --      1.4446                 1.7538                 1.4841
 Frc consts  --      1.2650                 1.5932                 1.3798
 IR Inten    --     66.6829                47.6659                33.7527

                     46                     47                     48
                      A                      A                      A
 Frequencies --   1289.7569              1296.7494              1318.0909
 Red. masses --      1.1974                 1.2283                 1.1726
 Frc consts  --      1.1735                 1.2169                 1.2003
 IR Inten    --     40.5528                19.4159                 6.0304

                     49                     50                     51
                      A                      A                      A
 Frequencies --   1332.3763              1344.1018              1359.7389
 Red. masses --      1.1762                 1.3128                 1.3956
 Frc consts  --      1.2302                 1.3974                 1.5202
 IR Inten    --     16.9388                 1.0252                 1.9691

                     52                     53                     54
                      A                      A                      A
 Frequencies --   1364.5905              1374.4496              1382.1040
 Red. masses --      1.3980                 1.3650                 1.3188
 Frc consts  --      1.5338                 1.5192                 1.4842
 IR Inten    --      3.2651                 3.2026                 4.9827

                     55                     56                     57
                      A                      A                      A
 Frequencies --   1389.0335              1394.6056              1401.1749
 Red. masses --      1.5106                 1.4319                 1.2658
 Frc consts  --      1.7172                 1.6408                 1.4642
 IR Inten    --     14.1171                11.9624                 5.5228

                     58                     59                     60
                      A                      A                      A
 Frequencies --   1411.5746              1420.0551              1427.1677
 Red. masses --      1.3660                 1.3477                 1.3625
 Frc consts  --      1.6036                 1.6013                 1.6351
 IR Inten    --      9.2578                11.0221                 8.1885

                     61                     62                     63
                      A                      A                      A
 Frequencies --   1435.7193              1480.3281              1488.3797
 Red. masses --      1.3587                 1.0987                 1.0814
 Frc consts  --      1.6501                 1.4185                 1.4114
 IR Inten    --     13.8402                 3.8260                13.9751

                     64                     65                     66
                      A                      A                      A
 Frequencies --   1489.4187              1494.0584              1501.1606
 Red. masses --      1.0988                 1.0916                 1.1041
 Frc consts  --      1.4362                 1.4356                 1.4660
 IR Inten    --      0.9248                10.9217                18.5811

                     67                     68                     69
                      A                      A                      A
 Frequencies --   1504.4820              1512.4405              1518.1505
 Red. masses --      1.0791                 1.0943                 1.0983
 Frc consts  --      1.4391                 1.4748                 1.4914
 IR Inten    --      5.3155                 4.4824                 3.6468

                     70                     71                     72
                      A                      A                      A
 Frequencies --   3028.7358              3041.3438              3045.4808
 Red. masses --      1.0696                 1.0680                 1.0693
 Frc consts  --      5.7812                 5.8206                 5.8434
 IR Inten    --     60.6769                91.7061                49.6014

                     73                     74                     75
                      A                      A                      A
 Frequencies --   3066.2103              3073.5768              3074.6847
 Red. masses --      1.0638                 1.0665                 1.0687
 Frc consts  --      5.8929                 5.9363                 5.9528
 IR Inten    --     32.1844                24.4399                22.4682

                     76                     77                     78
                      A                      A                      A
 Frequencies --   3077.2457              3082.7733              3089.7602
 Red. masses --      1.0653                 1.0604                 1.0820
 Frc consts  --      5.9434                 5.9377                 6.0860
 IR Inten    --      7.0923                43.2281                93.2158

                     79                     80                     81
                      A                      A                      A
 Frequencies --   3113.4629              3117.4418              3118.0382
 Red. masses --      1.0955                 1.0956                 1.0941
 Frc consts  --      6.2570                 6.2736                 6.2669
 IR Inten    --     56.4705                17.7442                33.8839

                     82                     83                     84
                      A                      A                      A
 Frequencies --   3120.5030              3128.0579              3131.1206
 Red. masses --      1.1002                 1.0997                 1.0960
 Frc consts  --      6.3122                 6.3397                 6.3306
 IR Inten    --     32.8839                53.8365                32.8135

                     85                     86                     87
                      A                      A                      A
 Frequencies --   3136.2942              3137.4186              3138.3547
 Red. masses --      1.0990                 1.0968                 1.0971
 Frc consts  --      6.3691                 6.3607                 6.3667
 IR Inten    --     42.8288                45.3697                61.1381

 - Thermochemistry -
 -------------------
 Temperature   298.150 Kelvin.  Pressure   1.00000 Atm.
 Atom     1 has atomic number  6 and mass  12.00000

 Molecular mass:   186.12559 amu.
 Principal axes and moments of inertia in atomic units:
                           1         2         3
     Eigenvalues --  1000.323284213.471644301.28690
           X            0.99997  -0.00530   0.00515
           Y            0.00577   0.99524  -0.09724
           Z           -0.00461   0.09727   0.99525
 This molecule is an asymmetric top.
 Rotational symmetry number  1.
 Warning -- assumption of classical behavior for rotation
           may cause significant error
 Rotational temperatures (Kelvin)      0.08659     0.02056     0.02014
 Rotational constants (GHZ):           1.80416     0.42833     0.41958
    1 imaginary frequencies ignored.
 Zero-point vibrational energy     736806.9 (Joules/Mol)
                                  176.10108 (Kcal/Mol)
 Warning -- explicit consideration of  16 degrees of freedom as
           vibrations may cause significant error
 Vibrational temperatures:     76.90    95.08   208.52   253.06   304.83
          (Kelvin)            328.44   411.53   443.26   517.40   563.42
                              628.96   637.58   648.27   765.06   798.72
                              838.89   950.86  1041.55  1155.63  1193.82
                             1205.47  1242.07  1284.65  1298.75  1317.48
                             1322.30  1339.16  1374.80  1403.80  1472.98
                             1504.60  1535.57  1538.02  1541.89  1564.82
                             1630.99  1649.09  1658.31  1692.67  1711.70
                             1749.57  1754.06  1786.53  1807.32  1855.67
                             1865.73  1896.44  1916.99  1933.86  1956.36
                             1963.34  1977.53  1988.54  1998.51  2006.53
                             2015.98  2030.94  2043.14  2053.38  2065.68
                             2129.86  2141.45  2142.94  2149.62  2159.84
                             2164.61  2176.06  2184.28  4357.68  4375.82
                             4381.77  4411.59  4422.19  4423.79  4427.47
                             4435.42  4445.48  4479.58  4485.30  4486.16
                             4489.71  4500.58  4504.98  4512.43  4514.05
                             4515.39

 Zero-point correction=                           0.280635 (Hartree/Particle)
 Thermal correction to Energy=                    0.291652
 Thermal correction to Enthalpy=                  0.292596
 Thermal correction to Gibbs Free Energy=         0.243489
 Sum of electronic and zero-point Energies=           -617.206531
 Sum of electronic and thermal Energies=              -617.195514
 Sum of electronic and thermal Enthalpies=            -617.194570
 Sum of electronic and thermal Free Energies=         -617.243677

                     E (Thermal)             CV                S
                      KCal/Mol        Cal/Mol-Kelvin    Cal/Mol-Kelvin
 Total                  183.014             44.833            103.355
 Electronic               0.000              0.000              0.000
 Translational            0.889              2.981             41.570
 Rotational               0.889              2.981             31.273
 Vibrational            181.237             38.871             30.512
 Vibration     1          0.596              1.976              4.686
 Vibration     2          0.597              1.970              4.267
 Vibration     3          0.616              1.908              2.738
 Vibration     4          0.628              1.872              2.372
 Vibration     5          0.643              1.823              2.028
 Vibration     6          0.651              1.798              1.892
 Vibration     7          0.684              1.700              1.497
 Vibration     8          0.698              1.658              1.373
 Vibration     9          0.734              1.555              1.124
 Vibration    10          0.759              1.488              0.994
 Vibration    11          0.797              1.389              0.836
 Vibration    12          0.803              1.376              0.817
 Vibration    13          0.809              1.360              0.794
 Vibration    14          0.887              1.180              0.583
 Vibration    15          0.911              1.128              0.534
 Vibration    16          0.940              1.068              0.480

 Optimization completed.
    -- Stationary point found.
 Normal termination of Gaussian 16 at Sun Nov  4 23:07:40 2018.
