 Gaussian 16, Revision A.03,
 Gaussian 16:  ES64L-G16RevA.03 25-Dec-2016

 ----------------------------------------------------------------------
 #M062X/6-311++G(2d,2p) opt=ModRedundant freq=noraman SCRF=(Solvent=Wat
 er)
 ----------------------------------------------------------------------

 -----------------------------
 D_a1-4_2SO_PHI.inp_extract_16
 -----------------------------
 Symbolic Z-matrix:
 Charge =  0 Multiplicity = 1

 SCF Done:  E(RM062X) =  -617.480208860     A.U. after   12 cycles
 SCF Done:  E(RM062X) =  -617.480559896     A.U. after   11 cycles
 SCF Done:  E(RM062X) =  -617.481554730     A.U. after   11 cycles
 SCF Done:  E(RM062X) =  -617.482057565     A.U. after   11 cycles
 SCF Done:  E(RM062X) =  -617.482203252     A.U. after   10 cycles
 SCF Done:  E(RM062X) =  -617.482221801     A.U. after    9 cycles
 SCF Done:  E(RM062X) =  -617.482224297     A.U. after    9 cycles
 SCF Done:  E(RM062X) =  -617.482224990     A.U. after    8 cycles
 SCF Done:  E(RM062X) =  -617.482224764     A.U. after    8 cycles
 SCF Done:  E(RM062X) =  -617.482224544     A.U. after    7 cycles
 SCF Done:  E(RM062X) =  -617.482225032     A.U. after    9 cycles
 SCF Done:  E(RM062X) =  -617.482224484     A.U. after    9 cycles
 Optimization completed.
    -- Stationary point found.
 Normal termination of Gaussian 16 at Sun Nov  4 22:17:45 2018.

 ----------------------------------------------------------------------
 #N Geom=AllCheck Guess=TCheck SCRF=Check GenChk RM062X/6-311++G(2d,2p)
  Freq
 ----------------------------------------------------------------------

 Structure from the checkpoint file:  "D_a1-4_2SO_PHI.inp_extract_16.chk"
 -----------------------------
 D_a1-4_2SO_PHI.inp_extract_16
 -----------------------------
 Charge =  0 Multiplicity = 1

                         Standard orientation:
 ---------------------------------------------------------------------
 Center     Atomic      Atomic             Coordinates (Angstroms)
 Number     Number       Type             X           Y           Z
 ---------------------------------------------------------------------
      1          6           0       -0.756031   -0.338858    0.072846
      2          6           0       -3.553623    0.505973   -0.388387
      3          8           0        1.899121   -1.357604    0.298719
      4          6           0       -1.274652    1.066404   -0.281740
      5          6           0       -1.946772   -1.268713    0.295322
      6          8           0        0.018388   -0.324192    1.264347
      7          6           0        2.061396    1.006260    0.985298
      8          6           0        2.274171    1.373891   -0.478693
      9          6           0        1.435479   -0.374746    1.192355
     10          6           0        3.106752    0.270809   -1.117574
     11          6           0        2.344333   -1.034598   -1.024069
     12          6           0       -3.050712   -0.911553   -0.695140
     13          8           0       -2.559582    1.290692    0.266922
     14          1           0       -0.159985   -0.718273   -0.753149
     15          1           0       -3.871090    1.014366   -1.303720
     16          1           0       -4.396808    0.472626    0.299393
     17          1           0       -0.616884    1.822971    0.140603
     18          1           0       -1.305486    1.200357   -1.369270
     19          1           0       -2.304858   -1.121577    1.315700
     20          1           0       -1.631447   -2.306147    0.198462
     21          1           0        1.439898    1.730271    1.510166
     22          1           0        3.036529    1.000582    1.477265
     23          1           0        1.322452    1.465410   -1.008919
     24          1           0        2.773640    2.339077   -0.549848
     25          1           0        1.709516   -0.739398    2.180917
     26          1           0        3.314396    0.473749   -2.168028
     27          1           0        4.063768    0.184534   -0.598280
     28          1           0        2.967012   -1.877152   -1.318226
     29          1           0        1.490745   -1.001464   -1.705453
     30          1           0       -2.656925   -0.966299   -1.711917
     31          1           0       -3.879932   -1.614017   -0.636912
 ---------------------------------------------------------------------

 SCF Done:  E(RM062X) =  -617.482224484     A.U. after    1 cycles

 The electronic state is 1-A.
 Alpha  occ. eigenvalues --  -19.63516 -19.62792 -19.62516 -10.63981 -10.58706
 Alpha  occ. eigenvalues --  -10.58494 -10.58022 -10.57986 -10.53510 -10.53312
 Alpha  occ. eigenvalues --  -10.53301 -10.53280 -10.53098  -1.19384  -1.16375
 Alpha  occ. eigenvalues --   -1.13207  -0.90945  -0.90440  -0.87211  -0.84537
 Alpha  occ. eigenvalues --   -0.75174  -0.74598  -0.73971  -0.70646  -0.64980
 Alpha  occ. eigenvalues --   -0.63093  -0.59587  -0.58638  -0.57683  -0.56818
 Alpha  occ. eigenvalues --   -0.54838  -0.53277  -0.52921  -0.51622  -0.49313
 Alpha  occ. eigenvalues --   -0.48794  -0.45983  -0.45796  -0.45140  -0.44780
 Alpha  occ. eigenvalues --   -0.43748  -0.42598  -0.41041  -0.40823  -0.40246
 Alpha  occ. eigenvalues --   -0.38841  -0.37138  -0.36651  -0.34584  -0.34068
 Alpha  occ. eigenvalues --   -0.31010
 Alpha virt. eigenvalues --   -0.00250   0.00616   0.00878   0.01138   0.02254
 Alpha virt. eigenvalues --    0.02559   0.02634   0.03279   0.03552   0.04542
 Alpha virt. eigenvalues --    0.04708   0.05099   0.05584   0.05799   0.07148

 Mulliken charges:
               1
     1  C   -0.263736
     2  C   -0.200375
     3  O   -0.305921
     4  C   -0.385591
     5  C   -0.156541
     6  O   -0.247560
     7  C   -0.437447
     8  C   -0.212521
     9  C   -0.012665
    10  C   -0.367744
    11  C   -0.192115
    12  C   -0.345217
    13  O   -0.335477
    14  H    0.222465
    15  H    0.162037
    16  H    0.175611
    17  H    0.223013
    18  H    0.223905
    19  H    0.194525
    20  H    0.172415
    21  H    0.201840
    22  H    0.205045
    23  H    0.158629
    24  H    0.209075
    25  H    0.249672
    26  H    0.182076
    27  H    0.166592
    28  H    0.207758
    29  H    0.152257
    30  H    0.174512
    31  H    0.181483
 Sum of Mulliken charges =  -0.00000

 Dipole moment (field-independent basis, Debye):
    X=              1.5006    Y=              0.3443    Z=             -3.7567  Tot=              4.0599
 Quadrupole moment (field-independent basis, Debye-Ang):
   XX=            -72.2623   YY=            -84.6431   ZZ=            -79.6453
   XY=              8.3845   XZ=              2.4998   YZ=              0.9352

  Exact polarizability: 173.253   1.342 154.081   0.474   0.743 155.890
 Approx polarizability: 147.466  -0.217 138.762  -0.002   1.186 145.038

                      1                      2                      3
                      A                      A                      A
 Frequencies --     14.4220                54.0639                60.7760
 Red. masses --      3.3268                 4.2683                 2.9521
 Frc consts  --      0.0004                 0.0074                 0.0064
 IR Inten    --      3.2134                 3.1405                 0.5188

                      4                      5                      6
                      A                      A                      A
 Frequencies --    136.4438               171.1934               207.9449
 Red. masses --      2.9947                 3.1446                 2.8205
 Frc consts  --      0.0328                 0.0543                 0.0719
 IR Inten    --      2.2015                 1.7594                 9.6919

                      7                      8                      9
                      A                      A                      A
 Frequencies --    217.0643               274.0592               317.6759
 Red. masses --      2.6714                 2.8542                 2.5810
 Frc consts  --      0.0742                 0.1263                 0.1535
 IR Inten    --      3.8434                 3.0695                 5.2184

                     10                     11                     12
                      A                      A                      A
 Frequencies --    352.3944               395.9028               439.6542
 Red. masses --      2.0251                 2.0191                 3.7523
 Frc consts  --      0.1482                 0.1865                 0.4273
 IR Inten    --      3.3317                 5.5890                 1.3387

                     13                     14                     15
                      A                      A                      A
 Frequencies --    442.3127               451.7330               491.9388
 Red. masses --      3.5799                 2.8268                 4.2746
 Frc consts  --      0.4126                 0.3399                 0.6095
 IR Inten    --     12.0920                 3.3175                 3.6801

                     16                     17                     18
                      A                      A                      A
 Frequencies --    552.5225               595.0329               660.9669
 Red. masses --      2.3970                 2.6988                 2.2732
 Frc consts  --      0.4311                 0.5630                 0.5851
 IR Inten    --      3.5640                 0.3090                20.4869

                     19                     20                     21
                      A                      A                      A
 Frequencies --    730.8027               777.3110               825.6820
 Red. masses --      3.3428                 2.6110                 1.6737
 Frc consts  --      1.0519                 0.9295                 0.6723
 IR Inten    --      9.7894                14.1286                 5.4454

                     22                     23                     24
                      A                      A                      A
 Frequencies --    849.7595               858.4989               887.8314
 Red. masses --      1.7505                 2.6127                 2.4282
 Frc consts  --      0.7448                 1.1345                 1.1277
 IR Inten    --      7.9919                 1.9562                26.3666

                     25                     26                     27
                      A                      A                      A
 Frequencies --    900.0719               915.5463               919.4957
 Red. masses --      2.3334                 2.5134                 2.3230
 Frc consts  --      1.1138                 1.2413                 1.1572
 IR Inten    --     19.8900                20.9682                53.4051

                     28                     29                     30
                      A                      A                      A
 Frequencies --    937.0939               959.5018               972.4953
 Red. masses --      1.8852                 1.5997                 1.7979
 Frc consts  --      0.9754                 0.8677                 1.0018
 IR Inten    --     11.4061                 4.1454                23.7627

                     31                     32                     33
                      A                      A                      A
 Frequencies --   1021.1220              1052.2733              1061.8759
 Red. masses --      2.2405                 2.3775                 1.8562
 Frc consts  --      1.3764                 1.5510                 1.2332
 IR Inten    --     47.5021                28.8093               159.6156

                     34                     35                     36
                      A                      A                      A
 Frequencies --   1070.8135              1080.4991              1085.7677
 Red. masses --      1.6236                 1.9262                 2.4347
 Frc consts  --      1.0969                 1.3250                 1.6911
 IR Inten    --      6.5057                66.9963               221.5940

                     37                     38                     39
                      A                      A                      A
 Frequencies --   1127.6706              1145.6741              1147.2869
 Red. masses --      1.9778                 3.1640                 3.1704
 Frc consts  --      1.4818                 2.4468                 2.4587
 IR Inten    --     26.7066               145.8585                63.2200

                     40                     41                     42
                      A                      A                      A
 Frequencies --   1168.7050              1185.5709              1214.7746
 Red. masses --      2.5016                 3.1118                 1.4485
 Frc consts  --      2.0132                 2.5770                 1.2594
 IR Inten    --      2.4149               152.5538                 4.5673

                     43                     44                     45
                      A                      A                      A
 Frequencies --   1218.3979              1245.3241              1255.0305
 Red. masses --      1.4032                 1.9081                 1.4830
 Frc consts  --      1.2273                 1.7434                 1.3763
 IR Inten    --     44.8180               100.2997                57.9568

                     46                     47                     48
                      A                      A                      A
 Frequencies --   1290.7000              1298.1414              1321.9979
 Red. masses --      1.1945                 1.2372                 1.1673
 Frc consts  --      1.1725                 1.2284                 1.2020
 IR Inten    --     17.7437                39.2949                16.0328

                     49                     50                     51
                      A                      A                      A
 Frequencies --   1334.0945              1341.8309              1351.8153
 Red. masses --      1.2004                 1.3038                 1.4734
 Frc consts  --      1.2587                 1.3832                 1.5864
 IR Inten    --     15.4075                 2.0477                 0.7326

                     52                     53                     54
                      A                      A                      A
 Frequencies --   1362.9878              1375.1987              1386.7987
 Red. masses --      1.3392                 1.3663                 1.3102
 Frc consts  --      1.4659                 1.5224                 1.4846
 IR Inten    --      3.1440                 4.1653                 3.9390

                     55                     56                     57
                      A                      A                      A
 Frequencies --   1389.3789              1393.5045              1405.0782
 Red. masses --      1.4107                 1.5776                 1.3863
 Frc consts  --      1.6045                 1.8049                 1.6126
 IR Inten    --     17.7857                 8.1716                 0.1101

                     58                     59                     60
                      A                      A                      A
 Frequencies --   1414.4009              1425.3529              1432.1387
 Red. masses --      1.3728                 1.3624                 1.3088
 Frc consts  --      1.6181                 1.6308                 1.5816
 IR Inten    --      8.7495                 8.7566                16.9771

                     61                     62                     63
                      A                      A                      A
 Frequencies --   1442.8510              1481.0879              1489.7692
 Red. masses --      1.2128                 1.0953                 1.0944
 Frc consts  --      1.4876                 1.4157                 1.4311
 IR Inten    --      3.1108                 4.4417                 4.4477

                     64                     65                     66
                      A                      A                      A
 Frequencies --   1492.3034              1496.7292              1502.1985
 Red. masses --      1.0909                 1.0929                 1.0777
 Frc consts  --      1.4313                 1.4424                 1.4328
 IR Inten    --     10.1037                13.2993                 4.6324

                     67                     68                     69
                      A                      A                      A
 Frequencies --   1504.4693              1517.1046              1530.8068
 Red. masses --      1.1051                 1.0990                 1.0881
 Frc consts  --      1.4738                 1.4903                 1.5023
 IR Inten    --     13.7654                 2.9241                 3.3102

                     70                     71                     72
                      A                      A                      A
 Frequencies --   3026.5549              3040.2367              3054.7481
 Red. masses --      1.0705                 1.0682                 1.0696
 Frc consts  --      5.7775                 5.8174                 5.8803
 IR Inten    --     67.4529                92.1692                50.5789

                     73                     74                     75
                      A                      A                      A
 Frequencies --   3063.1310              3069.1776              3072.9682
 Red. masses --      1.0677                 1.0630                 1.0687
 Frc consts  --      5.9022                 5.8999                 5.9458
 IR Inten    --     11.9890                24.4076                30.8204

                     76                     77                     78
                      A                      A                      A
 Frequencies --   3073.9444              3081.4194              3106.3087
 Red. masses --      1.0631                 1.0606                 1.0869
 Frc consts  --      5.9184                 5.9331                 6.1791
 IR Inten    --     38.8967                45.9443                72.5003

                     79                     80                     81
                      A                      A                      A
 Frequencies --   3117.2331              3119.5830              3120.8871
 Red. masses --      1.0955                 1.0966                 1.0977
 Frc consts  --      6.2717                 6.2875                 6.2993
 IR Inten    --     16.0430                43.6131                58.6338

                     82                     83                     84
                      A                      A                      A
 Frequencies --   3125.9458              3129.2317              3129.8333
 Red. masses --      1.1000                 1.0995                 1.1017
 Frc consts  --      6.3328                 6.3435                 6.3584
 IR Inten    --     35.2783                18.0920                65.6326

                     85                     86                     87
                      A                      A                      A
 Frequencies --   3135.0436              3142.7904              3157.0758
 Red. masses --      1.0994                 1.0948                 1.0846
 Frc consts  --      6.3663                 6.3712                 6.3695
 IR Inten    --     63.3832                12.6828                42.6918

 - Thermochemistry -
 -------------------
 Temperature   298.150 Kelvin.  Pressure   1.00000 Atm.
 Atom     1 has atomic number  6 and mass  12.00000

 Molecular mass:   186.12559 amu.
 Principal axes and moments of inertia in atomic units:
                           1         2         3
     Eigenvalues --  1126.517223833.594274056.98720
           X            0.99982   0.01899   0.00117
           Y           -0.01901   0.99956   0.02293
           Z           -0.00073  -0.02295   0.99974
 This molecule is an asymmetric top.
 Rotational symmetry number  1.
 Warning -- assumption of classical behavior for rotation
           may cause significant error
 Rotational temperatures (Kelvin)      0.07689     0.02259     0.02135
 Rotational constants (GHZ):           1.60205     0.47077     0.44485
 Zero-point vibrational energy     736886.7 (Joules/Mol)
                                  176.12014 (Kcal/Mol)
 Warning -- explicit consideration of  17 degrees of freedom as
           vibrations may cause significant error
 Vibrational temperatures:     20.75    77.79    87.44   196.31   246.31
          (Kelvin)            299.19   312.31   394.31   457.06   507.02
                              569.62   632.56   636.39   649.94   707.79
                              794.96   856.12   950.98  1051.46  1118.38
                             1187.97  1222.61  1235.19  1277.39  1295.00
                             1317.27  1322.95  1348.27  1380.51  1399.20
                             1469.17  1513.99  1527.80  1540.66  1554.60
                             1562.18  1622.47  1648.37  1650.69  1681.51
                             1705.77  1747.79  1753.00  1791.74  1805.71
                             1857.03  1867.74  1902.06  1919.46  1930.60
                             1944.96  1961.04  1978.60  1995.29  1999.01
                             2004.94  2021.59  2035.01  2050.76  2060.53
                             2075.94  2130.96  2143.45  2147.09  2153.46
                             2161.33  2164.60  2182.78  2202.49  4354.54
                             4374.22  4395.10  4407.16  4415.86  4421.32
                             4422.72  4433.48  4469.29  4485.00  4488.38
                             4490.26  4497.54  4502.27  4503.13  4510.63
                             4521.77  4542.33

 Zero-point correction=                           0.280665 (Hartree/Particle)
 Thermal correction to Energy=                    0.292682
 Thermal correction to Enthalpy=                  0.293626
 Thermal correction to Gibbs Free Energy=         0.240811
 Sum of electronic and zero-point Energies=           -617.201559
 Sum of electronic and thermal Energies=              -617.189543
 Sum of electronic and thermal Enthalpies=            -617.188598
 Sum of electronic and thermal Free Energies=         -617.241414

                     E (Thermal)             CV                S
                      KCal/Mol        Cal/Mol-Kelvin    Cal/Mol-Kelvin
 Total                  183.661             46.952            111.159
 Electronic               0.000              0.000              0.000
 Translational            0.889              2.981             41.570
 Rotational               0.889              2.981             31.239
 Vibrational            181.883             40.990             38.350
 Vibration     1          0.593              1.986              7.284
 Vibration     2          0.596              1.976              4.663
 Vibration     3          0.597              1.973              4.432
 Vibration     4          0.614              1.917              2.853
 Vibration     5          0.626              1.878              2.422
 Vibration     6          0.641              1.829              2.062
 Vibration     7          0.646              1.815              1.983
 Vibration     8          0.676              1.721              1.570
 Vibration     9          0.704              1.640              1.322
 Vibration    10          0.729              1.570              1.155
 Vibration    11          0.763              1.479              0.978
 Vibration    12          0.800              1.384              0.828
 Vibration    13          0.802              1.378              0.819
 Vibration    14          0.810              1.357              0.791
 Vibration    15          0.848              1.268              0.679
 Vibration    16          0.908              1.134              0.539
 Vibration    17          0.953              1.042              0.458

 Optimization completed.
    -- Stationary point found.
 Normal termination of Gaussian 16 at Sun Nov  4 23:13:24 2018.
