 Gaussian 16, Revision A.03,
 Gaussian 16:  ES64L-G16RevA.03 25-Dec-2016

 ----------------------------------------------------------------------
 #M062X/6-311++G(2d,2p) opt=ModRedundant freq=noraman SCRF=(Solvent=Wat
 er)
 ----------------------------------------------------------------------

 ----------------------------
 D_a1-4_2SO_PHI.inp_extract_3
 ----------------------------
 Symbolic Z-matrix:
 Charge =  0 Multiplicity = 1

 SCF Done:  E(RM062X) =  -617.491139118     A.U. after   12 cycles
 SCF Done:  E(RM062X) =  -617.492739585     A.U. after   10 cycles
 SCF Done:  E(RM062X) =  -617.492877675     A.U. after   10 cycles
 SCF Done:  E(RM062X) =  -617.492894892     A.U. after    9 cycles
 SCF Done:  E(RM062X) =  -617.492896933     A.U. after    8 cycles
 SCF Done:  E(RM062X) =  -617.492897470     A.U. after    8 cycles
 SCF Done:  E(RM062X) =  -617.492897568     A.U. after    7 cycles
 SCF Done:  E(RM062X) =  -617.492897591     A.U. after    7 cycles
 Optimization completed.
    -- Stationary point found.
 Normal termination of Gaussian 16 at Sun Nov  4 21:56:56 2018.

 ----------------------------------------------------------------------
 #N Geom=AllCheck Guess=TCheck SCRF=Check GenChk RM062X/6-311++G(2d,2p)
  Freq
 ----------------------------------------------------------------------

 Structure from the checkpoint file:  "D_a1-4_2SO_PHI.inp_extract_3.chk"
 ----------------------------
 D_a1-4_2SO_PHI.inp_extract_3
 ----------------------------
 Charge =  0 Multiplicity = 1

                         Standard orientation:
 ---------------------------------------------------------------------
 Center     Atomic      Atomic             Coordinates (Angstroms)
 Number     Number       Type             X           Y           Z
 ---------------------------------------------------------------------
      1          6           0        1.089522   -0.323064   -0.645634
      2          6           0        3.707304    0.055895    0.669181
      3          8           0       -2.203793   -0.578404   -1.222512
      4          6           0        1.952947   -1.375786    0.052488
      5          6           0        1.731690    1.055976   -0.470762
      6          8           0       -0.214900   -0.372986   -0.079011
      7          6           0       -1.789148    1.443366    0.045017
      8          6           0       -2.565367    0.874151    1.230642
      9          6           0       -1.206581    0.323129   -0.805234
     10          6           0       -3.605328   -0.121346    0.719548
     11          6           0       -2.925942   -1.172516   -0.141916
     12          6           0        3.249372    0.902700   -0.526958
     13          8           0        2.674874   -0.813671    1.131080
     14          1           0        1.021670   -0.575720   -1.709447
     15          1           0        4.590836   -0.535660    0.411862
     16          1           0        3.951436    0.693137    1.517322
     17          1           0        1.315901   -2.157856    0.459224
     18          1           0        2.645872   -1.829028   -0.663388
     19          1           0        1.439480    1.442739    0.507265
     20          1           0        1.370937    1.752586   -1.226802
     21          1           0       -0.977199    2.093318    0.370448
     22          1           0       -2.457911    2.031316   -0.587210
     23          1           0       -1.875216    0.364874    1.906724
     24          1           0       -3.038793    1.677844    1.793371
     25          1           0       -0.778908    0.717060   -1.728634
     26          1           0       -4.122512   -0.612138    1.544580
     27          1           0       -4.355069    0.401680    0.120933
     28          1           0       -3.648869   -1.839742   -0.605744
     29          1           0       -2.240310   -1.771959    0.462773
     30          1           0        3.530547    0.423256   -1.466459
     31          1           0        3.747844    1.869758   -0.501506
 ---------------------------------------------------------------------

 SCF Done:  E(RM062X) =  -617.492897591     A.U. after    1 cycles

 The electronic state is 1-A.
 Alpha  occ. eigenvalues --  -19.62919 -19.62873 -19.62867 -10.63517 -10.59092
 Alpha  occ. eigenvalues --  -10.58141 -10.58094 -10.57708 -10.53468 -10.53333
 Alpha  occ. eigenvalues --  -10.52994 -10.52956 -10.52836  -1.19835  -1.16487
 Alpha  occ. eigenvalues --   -1.13358  -0.90560  -0.89799  -0.87192  -0.84447
 Alpha  occ. eigenvalues --   -0.75112  -0.73772  -0.73049  -0.71519  -0.64943
 Alpha  occ. eigenvalues --   -0.62901  -0.60023  -0.59170  -0.57417  -0.55849
 Alpha  occ. eigenvalues --   -0.55249  -0.53219  -0.52622  -0.50431  -0.49320
 Alpha  occ. eigenvalues --   -0.46949  -0.46751  -0.46210  -0.45117  -0.44936
 Alpha  occ. eigenvalues --   -0.43774  -0.42623  -0.41989  -0.41039  -0.39988
 Alpha  occ. eigenvalues --   -0.38242  -0.37271  -0.36820  -0.33711  -0.33483
 Alpha  occ. eigenvalues --   -0.32066
 Alpha virt. eigenvalues --   -0.00114   0.00767   0.00876   0.01029   0.02226
 Alpha virt. eigenvalues --    0.02441   0.02628   0.03413   0.03602   0.04408
 Alpha virt. eigenvalues --    0.04496   0.04674   0.05455   0.05853   0.06971

 Mulliken charges:
               1
     1  C   -0.135376
     2  C   -0.248490
     3  O   -0.295493
     4  C   -0.342082
     5  C   -0.104179
     6  O   -0.276776
     7  C   -0.203667
     8  C   -0.344518
     9  C   -0.131653
    10  C   -0.365546
    11  C   -0.171523
    12  C   -0.440666
    13  O   -0.311148
    14  H    0.228891
    15  H    0.173446
    16  H    0.177077
    17  H    0.203463
    18  H    0.178611
    19  H    0.201946
    20  H    0.172443
    21  H    0.166153
    22  H    0.184471
    23  H    0.184325
    24  H    0.174737
    25  H    0.281192
    26  H    0.166532
    27  H    0.166051
    28  H    0.210622
    29  H    0.154050
    30  H    0.189155
    31  H    0.157951
 Sum of Mulliken charges =   0.00000

 Dipole moment (field-independent basis, Debye):
    X=              1.0664    Y=              2.0514    Z=             -1.1760  Tot=              2.5940
 Quadrupole moment (field-independent basis, Debye-Ang):
   XX=            -71.7925   YY=            -77.5166   ZZ=            -84.5174
   XY=              2.2197   XZ=             -9.5112   YZ=              0.4573

  Exact polarizability: 176.057   3.828 156.646  -1.330  -0.296 150.659
 Approx polarizability: 147.682   2.512 140.653  -0.373  -0.808 141.900

 ******    1 imaginary frequencies (negative Signs) ******

                      1                      2                      3
                      A                      A                      A
 Frequencies --    -20.1132                55.6130                64.3337
 Red. masses --      3.8091                 3.4701                 3.5839
 Frc consts  --      0.0009                 0.0063                 0.0087
 IR Inten    --      3.5778                 1.7210                 0.6175

                      4                      5                      6
                      A                      A                      A
 Frequencies --    106.3725               189.2542               208.7728
 Red. masses --      3.0056                 3.4529                 2.2031
 Frc consts  --      0.0200                 0.0729                 0.0566
 IR Inten    --      3.4133                 0.1603                 4.7783

                      7                      8                      9
                      A                      A                      A
 Frequencies --    234.4109               260.9913               312.9935
 Red. masses --      2.8481                 2.5948                 2.2275
 Frc consts  --      0.0922                 0.1041                 0.1286
 IR Inten    --      3.8328                 0.3079                 2.5777

                     10                     11                     12
                      A                      A                      A
 Frequencies --    371.2111               393.4743               427.9621
 Red. masses --      1.9729                 2.6297                 2.8344
 Frc consts  --      0.1602                 0.2399                 0.3059
 IR Inten    --      8.8831                 9.1668                10.8705

                     13                     14                     15
                      A                      A                      A
 Frequencies --    443.5971               476.1467               517.0864
 Red. masses --      3.6349                 3.1972                 2.8801
 Frc consts  --      0.4214                 0.4271                 0.4537
 IR Inten    --      1.4550                 4.3447                 2.1391

                     16                     17                     18
                      A                      A                      A
 Frequencies --    551.3099               598.2739               666.4306
 Red. masses --      3.1317                 2.9982                 2.2897
 Frc consts  --      0.5608                 0.6323                 0.5992
 IR Inten    --      9.9162                11.8440                10.8859

                     19                     20                     21
                      A                      A                      A
 Frequencies --    691.8345               822.2780               834.8699
 Red. masses --      2.5760                 2.0632                 1.5436
 Frc consts  --      0.7265                 0.8219                 0.6339
 IR Inten    --      2.7990                 7.3515                 1.1420

                     22                     23                     24
                      A                      A                      A
 Frequencies --    847.4383               870.6628               897.1141
 Red. masses --      3.0730                 1.9714                 2.2278
 Frc consts  --      1.3003                 0.8805                 1.0564
 IR Inten    --      4.5080                 4.5210                11.4249

                     25                     26                     27
                      A                      A                      A
 Frequencies --    899.8672               917.9108               925.2541
 Red. masses --      2.5260                 2.5854                 1.9561
 Frc consts  --      1.2051                 1.2835                 0.9866
 IR Inten    --     42.5740                10.3264                62.5544

                     28                     29                     30
                      A                      A                      A
 Frequencies --    938.3402               953.3094               986.7587
 Red. masses --      2.1440                 1.5644                 1.9257
 Frc consts  --      1.1122                 0.8376                 1.1048
 IR Inten    --     10.3604                 0.3652                42.3574

                     31                     32                     33
                      A                      A                      A
 Frequencies --   1026.7616              1053.7610              1065.6963
 Red. masses --      2.2025                 2.2467                 1.5508
 Frc consts  --      1.3681                 1.4699                 1.0377
 IR Inten    --     43.9684                91.6624                58.8575

                     34                     35                     36
                      A                      A                      A
 Frequencies --   1066.7606              1072.9814              1090.8980
 Red. masses --      1.7732                 2.3436                 2.6247
 Frc consts  --      1.1889                 1.5897                 1.8403
 IR Inten    --    111.5400                 6.1784               286.9127

                     37                     38                     39
                      A                      A                      A
 Frequencies --   1137.2026              1148.7384              1152.0646
 Red. masses --      2.1753                 4.2162                 2.4215
 Frc consts  --      1.6575                 3.2780                 1.8936
 IR Inten    --    165.1212                32.3862                38.9772

                     40                     41                     42
                      A                      A                      A
 Frequencies --   1166.6586              1181.5515              1210.9946
 Red. masses --      3.4820                 2.8636                 1.4129
 Frc consts  --      2.7923                 2.3554                 1.2208
 IR Inten    --    113.6498                26.5257                15.5479

                     43                     44                     45
                      A                      A                      A
 Frequencies --   1217.3656              1236.7451              1251.2298
 Red. masses --      1.3550                 1.7568                 1.4752
 Frc consts  --      1.1831                 1.5832                 1.3607
 IR Inten    --      1.4405                85.0514                55.1680

                     46                     47                     48
                      A                      A                      A
 Frequencies --   1285.4240              1288.6375              1317.5831
 Red. masses --      1.2133                 1.1950                 1.1488
 Frc consts  --      1.1812                 1.1692                 1.1751
 IR Inten    --     28.0654                 9.0890                 5.6726

                     49                     50                     51
                      A                      A                      A
 Frequencies --   1330.0666              1342.0063              1355.4426
 Red. masses --      1.1857                 1.2680                 1.3267
 Frc consts  --      1.2359                 1.3455                 1.4361
 IR Inten    --     12.5323                 1.5947                13.0006

                     52                     53                     54
                      A                      A                      A
 Frequencies --   1372.0532              1374.8977              1384.1768
 Red. masses --      1.4742                 1.4106                 1.3811
 Frc consts  --      1.6351                 1.5710                 1.5591
 IR Inten    --     18.5079                 3.1896                20.2416

                     55                     56                     57
                      A                      A                      A
 Frequencies --   1386.3624              1389.9876              1398.7111
 Red. masses --      1.3737                 1.7275                 1.3782
 Frc consts  --      1.5556                 1.9665                 1.5886
 IR Inten    --     10.6324                18.8958                 0.6378

                     58                     59                     60
                      A                      A                      A
 Frequencies --   1406.0677              1422.1644              1425.1869
 Red. masses --      1.3041                 1.3593                 1.3926
 Frc consts  --      1.5190                 1.6198                 1.6665
 IR Inten    --     20.8084                22.2251                 2.4968

                     61                     62                     63
                      A                      A                      A
 Frequencies --   1448.6667              1476.6239              1483.0794
 Red. masses --      1.2678                 1.1084                 1.0873
 Frc consts  --      1.5676                 1.4239                 1.4091
 IR Inten    --      6.3457                 5.7570                 9.8090

                     64                     65                     66
                      A                      A                      A
 Frequencies --   1491.5622              1495.5009              1496.0194
 Red. masses --      1.0954                 1.1025                 1.0966
 Frc consts  --      1.4359                 1.4527                 1.4460
 IR Inten    --      1.6551                18.3203                 4.7382

                     67                     68                     69
                      A                      A                      A
 Frequencies --   1503.2866              1512.4520              1517.7348
 Red. masses --      1.0778                 1.0936                 1.0984
 Frc consts  --      1.4350                 1.4739                 1.4907
 IR Inten    --      7.1496                 4.3855                 3.6406

                     70                     71                     72
                      A                      A                      A
 Frequencies --   3031.2968              3041.9395              3047.8530
 Red. masses --      1.0793                 1.0683                 1.0738
 Frc consts  --      5.8433                 5.8241                 5.8773
 IR Inten    --     16.6178                91.1150                92.8249

                     73                     74                     75
                      A                      A                      A
 Frequencies --   3058.3613              3064.6043              3069.1578
 Red. masses --      1.0685                 1.0630                 1.0647
 Frc consts  --      5.8883                 5.8822                 5.9090
 IR Inten    --     36.0344                46.9080                21.4176

                     76                     77                     78
                      A                      A                      A
 Frequencies --   3072.4651              3073.5916              3078.9909
 Red. masses --      1.0621                 1.0670                 1.0609
 Frc consts  --      5.9075                 5.9391                 5.9258
 IR Inten    --     21.0767                19.6923                66.6706

                     79                     80                     81
                      A                      A                      A
 Frequencies --   3089.6289              3113.9512              3117.7842
 Red. masses --      1.0855                 1.0977                 1.0957
 Frc consts  --      6.1050                 6.2713                 6.2753
 IR Inten    --     61.7836                39.2157                18.9260

                     82                     83                     84
                      A                      A                      A
 Frequencies --   3118.8799              3125.4317              3127.1489
 Red. masses --      1.1014                 1.1034                 1.1037
 Frc consts  --      6.3123                 6.3506                 6.3593
 IR Inten    --     59.4566                27.8354                53.1516

                     85                     86                     87
                      A                      A                      A
 Frequencies --   3135.5683              3136.0635              3143.6135
 Red. masses --      1.0998                 1.0994                 1.0965
 Frc consts  --      6.3707                 6.3707                 6.3841
 IR Inten    --     51.9909                57.3636                19.0961

 - Thermochemistry -
 -------------------
 Temperature   298.150 Kelvin.  Pressure   1.00000 Atm.
 Atom     1 has atomic number  6 and mass  12.00000

 Molecular mass:   186.12559 amu.
 Principal axes and moments of inertia in atomic units:
                           1         2         3
     Eigenvalues --   968.982224441.782584576.83181
           X            0.99988   0.00333  -0.01500
           Y           -0.00314   0.99992   0.01240
           Z            0.01504  -0.01235   0.99981
 This molecule is an asymmetric top.
 Rotational symmetry number  1.
 Warning -- assumption of classical behavior for rotation
           may cause significant error
 Rotational temperatures (Kelvin)      0.08939     0.01950     0.01892
 Rotational constants (GHZ):           1.86251     0.40631     0.39432
    1 imaginary frequencies ignored.
 Zero-point vibrational energy     736261.5 (Joules/Mol)
                                  175.97071 (Kcal/Mol)
 Warning -- explicit consideration of  16 degrees of freedom as
           vibrations may cause significant error
 Vibrational temperatures:     80.01    92.56   153.05   272.29   300.38
          (Kelvin)            337.26   375.51   450.33   534.09   566.12
                              615.74   638.24   685.07   743.97   793.21
                              860.78   958.84   995.40  1183.07  1201.19
                             1219.27  1252.69  1290.75  1294.71  1320.67
                             1331.23  1350.06  1371.60  1419.73  1477.28
                             1516.13  1533.30  1534.83  1543.78  1569.56
                             1636.18  1652.78  1657.56  1678.56  1699.99
                             1742.35  1751.52  1779.40  1800.24  1849.44
                             1854.06  1895.71  1913.67  1930.85  1950.18
                             1974.08  1978.17  1991.52  1994.67  1999.88
                             2012.43  2023.02  2046.18  2050.53  2084.31
                             2124.53  2133.82  2146.03  2151.69  2152.44
                             2162.89  2176.08  2183.68  4361.36  4376.67
                             4385.18  4400.30  4409.28  4415.83  4420.59
                             4422.21  4429.98  4445.29  4480.28  4485.80
                             4487.37  4496.80  4499.27  4511.38  4512.10
                             4522.96

 Zero-point correction=                           0.280427 (Hartree/Particle)
 Thermal correction to Energy=                    0.291487
 Thermal correction to Enthalpy=                  0.292432
 Thermal correction to Gibbs Free Energy=         0.243072
 Sum of electronic and zero-point Energies=           -617.212470
 Sum of electronic and thermal Energies=              -617.201410
 Sum of electronic and thermal Enthalpies=            -617.200466
 Sum of electronic and thermal Free Energies=         -617.249825

                     E (Thermal)             CV                S
                      KCal/Mol        Cal/Mol-Kelvin    Cal/Mol-Kelvin
 Total                  182.911             44.794            103.886
 Electronic               0.000              0.000              0.000
 Translational            0.889              2.981             41.570
 Rotational               0.889              2.981             31.355
 Vibrational            181.134             38.833             30.961
 Vibration     1          0.596              1.975              4.607
 Vibration     2          0.597              1.971              4.320
 Vibration     3          0.605              1.944              3.334
 Vibration     4          0.633              1.855              2.235
 Vibration     5          0.642              1.827              2.054
 Vibration     6          0.654              1.788              1.845
 Vibration     7          0.669              1.744              1.655
 Vibration     8          0.701              1.649              1.346
 Vibration     9          0.743              1.531              1.075
 Vibration    10          0.761              1.484              0.987
 Vibration    11          0.789              1.409              0.865
 Vibration    12          0.803              1.375              0.815
 Vibration    13          0.833              1.303              0.721
 Vibration    14          0.872              1.212              0.617
 Vibration    15          0.907              1.137              0.541
 Vibration    16          0.956              1.035              0.453

 Optimization completed.
    -- Stationary point found.
 Normal termination of Gaussian 16 at Sun Nov  4 22:50:29 2018.
