 Gaussian 16, Revision A.03,
 Gaussian 16:  ES64L-G16RevA.03 25-Dec-2016

 ----------------------------------------------------------------------
 #M062X/6-311++G(2d,2p) opt=ModRedundant freq=noraman SCRF=(Solvent=Wat
 er)
 ----------------------------------------------------------------------

 -----------------------------
 D_a1-4_2SO_PHI.inp_extract_18
 -----------------------------
 Symbolic Z-matrix:
 Charge =  0 Multiplicity = 1

 SCF Done:  E(RM062X) =  -617.480070978     A.U. after   12 cycles
 SCF Done:  E(RM062X) =  -617.479908364     A.U. after   12 cycles
 SCF Done:  E(RM062X) =  -617.481778297     A.U. after   10 cycles
 SCF Done:  E(RM062X) =  -617.482198110     A.U. after   10 cycles
 SCF Done:  E(RM062X) =  -617.482234061     A.U. after    9 cycles
 SCF Done:  E(RM062X) =  -617.482245345     A.U. after    8 cycles
 SCF Done:  E(RM062X) =  -617.482246861     A.U. after    8 cycles
 SCF Done:  E(RM062X) =  -617.482247271     A.U. after    7 cycles
 SCF Done:  E(RM062X) =  -617.482247354     A.U. after    6 cycles
 SCF Done:  E(RM062X) =  -617.482247394     A.U. after    6 cycles
 Optimization completed.
    -- Stationary point found.
 Normal termination of Gaussian 16 at Sun Nov  4 22:06:05 2018.

 ----------------------------------------------------------------------
 #N Geom=AllCheck Guess=TCheck SCRF=Check GenChk RM062X/6-311++G(2d,2p)
  Freq
 ----------------------------------------------------------------------

 Structure from the checkpoint file:  "D_a1-4_2SO_PHI.inp_extract_18.chk"
 -----------------------------
 D_a1-4_2SO_PHI.inp_extract_18
 -----------------------------
 Charge =  0 Multiplicity = 1

                         Standard orientation:
 ---------------------------------------------------------------------
 Center     Atomic      Atomic             Coordinates (Angstroms)
 Number     Number       Type             X           Y           Z
 ---------------------------------------------------------------------
      1          6           0        0.856959   -0.515229    0.144426
      2          6           0        3.469094    0.875627    0.014208
      3          8           0       -1.764924   -1.238913    0.688735
      4          6           0        1.132782    0.995037    0.221058
      5          6           0        2.171727   -1.242080   -0.141259
      6          8           0       -0.044697   -0.856359   -0.899226
      7          6           0       -2.302208   -0.013746   -1.373509
      8          6           0       -2.590625    1.242141   -0.557233
      9          6           0       -1.442934   -1.056318   -0.660513
     10          6           0       -3.067835    0.830405    0.830775
     11          6           0       -2.020644   -0.062831    1.465002
     12          6           0        3.306219   -0.535778    0.594409
     13          8           0        2.255226    1.352714   -0.562957
     14          1           0        0.461840   -0.861744    1.098580
     15          1           0        3.805251    1.578271    0.782506
     16          1           0        4.195645    0.875141   -0.796541
     17          1           0        0.287097    1.551895   -0.172678
     18          1           0        1.293761    1.300274    1.261586
     19          1           0        2.353696   -1.205922   -1.216679
     20          1           0        2.088287   -2.288045    0.148078
     21          1           0       -1.824979    0.217072   -2.324668
     22          1           0       -3.254382   -0.500334   -1.597391
     23          1           0       -1.699503    1.864534   -0.465801
     24          1           0       -3.341415    1.843858   -1.068070
     25          1           0       -1.645381   -2.026114   -1.115824
     26          1           0       -3.229350    1.697377    1.471331
     27          1           0       -4.012749    0.287230    0.757543
     28          1           0       -2.338664   -0.432569    2.437045
     29          1           0       -1.096257    0.504798    1.607033
     30          1           0        3.073877   -0.487637    1.660044
     31          1           0        4.243181   -1.081002    0.497315
 ---------------------------------------------------------------------

 SCF Done:  E(RM062X) =  -617.482247394     A.U. after    1 cycles

 The electronic state is 1-A.
 Alpha  occ. eigenvalues --  -19.63953 -19.62791 -19.62369 -10.63876 -10.58660
 Alpha  occ. eigenvalues --  -10.58508 -10.58010 -10.57954 -10.53371 -10.53264
 Alpha  occ. eigenvalues --  -10.53235 -10.53225 -10.53035  -1.19622  -1.16397
 Alpha  occ. eigenvalues --   -1.13140  -0.90931  -0.90243  -0.87303  -0.84357
 Alpha  occ. eigenvalues --   -0.75330  -0.74396  -0.73834  -0.70639  -0.64892
 Alpha  occ. eigenvalues --   -0.62702  -0.60187  -0.58472  -0.58231  -0.56792
 Alpha  occ. eigenvalues --   -0.54431  -0.53161  -0.52968  -0.50793  -0.49462
 Alpha  occ. eigenvalues --   -0.48468  -0.46319  -0.45946  -0.45381  -0.44955
 Alpha  occ. eigenvalues --   -0.43752  -0.42316  -0.41518  -0.40661  -0.39499
 Alpha  occ. eigenvalues --   -0.38889  -0.37234  -0.36563  -0.35180  -0.33921
 Alpha  occ. eigenvalues --   -0.30776
 Alpha virt. eigenvalues --   -0.00214   0.00673   0.00894   0.01109   0.02264
 Alpha virt. eigenvalues --    0.02526   0.02583   0.03290   0.03557   0.04503
 Alpha virt. eigenvalues --    0.04751   0.04895   0.05567   0.05722   0.07224

 Mulliken charges:
               1
     1  C   -0.367697
     2  C   -0.176595
     3  O   -0.292116
     4  C   -0.355609
     5  C   -0.280331
     6  O   -0.209400
     7  C   -0.237036
     8  C   -0.268683
     9  C   -0.110965
    10  C   -0.384648
    11  C   -0.151554
    12  C   -0.380337
    13  O   -0.310690
    14  H    0.264463
    15  H    0.160398
    16  H    0.175197
    17  H    0.298441
    18  H    0.218096
    19  H    0.186716
    20  H    0.179986
    21  H    0.182840
    22  H    0.197709
    23  H    0.139146
    24  H    0.204975
    25  H    0.245561
    26  H    0.181221
    27  H    0.170345
    28  H    0.217274
    29  H    0.145955
    30  H    0.173915
    31  H    0.183423
 Sum of Mulliken charges =  -0.00000

 Dipole moment (field-independent basis, Debye):
    X=             -0.8460    Y=              0.8821    Z=              2.5948  Tot=              2.8682
 Quadrupole moment (field-independent basis, Debye-Ang):
   XX=            -69.8809   YY=            -84.6415   ZZ=            -79.9588
   XY=             -6.3020   XZ=              4.6253   YZ=              3.3160

  Exact polarizability: 175.038  -0.943 154.019   1.188   3.280 155.362
 Approx polarizability: 147.916   0.977 139.805  -0.144   1.762 144.014

 ******    1 imaginary frequencies (negative Signs) ******

                      1                      2                      3
                      A                      A                      A
 Frequencies --    -74.9854                60.2985                69.6014
 Red. masses --      3.8207                 3.8693                 2.9609
 Frc consts  --      0.0127                 0.0083                 0.0085
 IR Inten    --      7.1347                 2.3746                 0.7162

                      4                      5                      6
                      A                      A                      A
 Frequencies --    131.3700               161.9589               214.7982
 Red. masses --      3.0195                 2.7927                 2.2899
 Frc consts  --      0.0307                 0.0432                 0.0622
 IR Inten    --      1.1182                 1.0020                 4.0463

                      7                      8                      9
                      A                      A                      A
 Frequencies --    240.9422               271.2035               307.7622
 Red. masses --      3.7652                 3.0167                 2.5219
 Frc consts  --      0.1288                 0.1307                 0.1407
 IR Inten    --      8.6863                 2.9882                 6.2415

                     10                     11                     12
                      A                      A                      A
 Frequencies --    348.8128               396.2025               410.9818
 Red. masses --      1.8518                 2.6855                 2.2030
 Frc consts  --      0.1327                 0.2484                 0.2192
 IR Inten    --      1.9302                10.9616                 9.2299

                     13                     14                     15
                      A                      A                      A
 Frequencies --    440.2849               454.8606               500.2178
 Red. masses --      3.3516                 3.3036                 3.3576
 Frc consts  --      0.3828                 0.4027                 0.4950
 IR Inten    --      1.5261                 1.9658                 1.0131

                     16                     17                     18
                      A                      A                      A
 Frequencies --    550.6096               591.8954               658.9807
 Red. masses --      2.7997                 2.7653                 2.2597
 Frc consts  --      0.5001                 0.5708                 0.5782
 IR Inten    --      6.7663                 0.2393                17.8788

                     19                     20                     21
                      A                      A                      A
 Frequencies --    728.4633               776.6977               824.1071
 Red. masses --      3.2689                 2.5737                 1.7548
 Frc consts  --      1.0220                 0.9148                 0.7022
 IR Inten    --      5.7950                14.4514                 4.5124

                     22                     23                     24
                      A                      A                      A
 Frequencies --    841.7451               856.1105               888.9007
 Red. masses --      2.3322                 1.9671                 2.4773
 Frc consts  --      0.9736                 0.8494                 1.1533
 IR Inten    --      4.6170                 5.8274                18.9846

                     25                     26                     27
                      A                      A                      A
 Frequencies --    905.0495               915.0754               921.9058
 Red. masses --      2.3339                 2.5215                 2.2045
 Frc consts  --      1.1264                 1.2440                 1.1039
 IR Inten    --     24.8594                22.0255                47.1481

                     28                     29                     30
                      A                      A                      A
 Frequencies --    928.5264               947.8666               971.8038
 Red. masses --      1.8163                 1.8133                 1.7811
 Frc consts  --      0.9226                 0.9599                 0.9911
 IR Inten    --     11.0008                 8.7501                21.4661

                     31                     32                     33
                      A                      A                      A
 Frequencies --   1023.5354              1047.5830              1065.2287
 Red. masses --      2.2840                 2.3667                 1.7982
 Frc consts  --      1.4098                 1.5303                 1.2022
 IR Inten    --     26.9444                89.7025               111.1551

                     34                     35                     36
                      A                      A                      A
 Frequencies --   1071.0606              1075.7982              1088.1715
 Red. masses --      1.6963                 2.1519                 2.2688
 Frc consts  --      1.1465                 1.4673                 1.5828
 IR Inten    --     69.5774                23.3397               212.2481

                     37                     38                     39
                      A                      A                      A
 Frequencies --   1130.3352              1145.2393              1150.5332
 Red. masses --      2.0539                 2.8372                 3.3988
 Frc consts  --      1.5461                 2.1925                 2.6508
 IR Inten    --     45.7363               156.1292                24.4126

                     40                     41                     42
                      A                      A                      A
 Frequencies --   1167.0256              1194.6800              1210.4849
 Red. masses --      2.7926                 2.9047                 1.3835
 Frc consts  --      2.2409                 2.4426                 1.1944
 IR Inten    --     14.2392               148.5557                13.0531

                     43                     44                     45
                      A                      A                      A
 Frequencies --   1217.8184              1244.6360              1256.5732
 Red. masses --      1.3714                 1.9231                 1.5293
 Frc consts  --      1.1984                 1.7552                 1.4228
 IR Inten    --     15.5587                96.5586                53.4334

                     46                     47                     48
                      A                      A                      A
 Frequencies --   1290.3087              1299.2459              1326.0166
 Red. masses --      1.1817                 1.2431                 1.1790
 Frc consts  --      1.1592                 1.2364                 1.2214
 IR Inten    --     26.6706                43.2855                19.5131

                     49                     50                     51
                      A                      A                      A
 Frequencies --   1333.1809              1344.1753              1362.7693
 Red. masses --      1.1775                 1.3147                 1.3517
 Frc consts  --      1.2330                 1.3996                 1.4790
 IR Inten    --     16.2141                 0.3765                 2.1366

                     52                     53                     54
                      A                      A                      A
 Frequencies --   1371.6628              1375.4205              1385.4546
 Red. masses --      1.3883                 1.3582                 1.2905
 Frc consts  --      1.5389                 1.5138                 1.4595
 IR Inten    --      4.6510                 3.8411                10.8645

                     55                     56                     57
                      A                      A                      A
 Frequencies --   1388.0890              1393.9838              1408.4324
 Red. masses --      1.4574                 1.6664                 1.3709
 Frc consts  --      1.6545                 1.9078                 1.6022
 IR Inten    --      1.9991                18.5539                 6.2527

                     58                     59                     60
                      A                      A                      A
 Frequencies --   1415.5599              1423.3673              1430.4305
 Red. masses --      1.3120                 1.3365                 1.2323
 Frc consts  --      1.5489                 1.5953                 1.4856
 IR Inten    --      1.6671                 7.6230                 7.1600

                     61                     62                     63
                      A                      A                      A
 Frequencies --   1447.7969              1472.4011              1484.4155
 Red. masses --      1.3037                 1.0960                 1.0926
 Frc consts  --      1.6100                 1.3999                 1.4184
 IR Inten    --     12.6657                 5.6578                 8.3738

                     64                     65                     66
                      A                      A                      A
 Frequencies --   1489.5834              1493.8425              1501.6098
 Red. masses --      1.0921                 1.0961                 1.1010
 Frc consts  --      1.4277                 1.4412                 1.4628
 IR Inten    --      1.0338                10.4376                21.7566

                     67                     68                     69
                      A                      A                      A
 Frequencies --   1502.9582              1516.5300              1518.7310
 Red. masses --      1.0864                 1.0987                 1.0928
 Frc consts  --      1.4459                 1.4887                 1.4852
 IR Inten    --      1.7654                 4.6451                 1.5163

                     70                     71                     72
                      A                      A                      A
 Frequencies --   3026.3080              3040.8086              3057.1279
 Red. masses --      1.0720                 1.0682                 1.0684
 Frc consts  --      5.7847                 5.8194                 5.8831
 IR Inten    --     64.0796                90.6074                40.5691

                     73                     74                     75
                      A                      A                      A
 Frequencies --   3067.6057              3068.0093              3072.9003
 Red. masses --      1.0690                 1.0630                 1.0683
 Frc consts  --      5.9270                 5.8952                 5.9436
 IR Inten    --     18.7116                28.8463                27.7425

                     76                     77                     78
                      A                      A                      A
 Frequencies --   3081.7725              3084.3081              3087.2524
 Red. masses --      1.0607                 1.0612                 1.0847
 Frc consts  --      5.9350                 5.9481                 6.0911
 IR Inten    --     41.5187                35.9564                92.9742

                     79                     80                     81
                      A                      A                      A
 Frequencies --   3109.8796              3116.5808              3117.8364
 Red. masses --      1.0847                 1.0956                 1.0987
 Frc consts  --      6.1810                 6.2698                 6.2926
 IR Inten    --     22.8615                12.9988                32.9270

                     82                     83                     84
                      A                      A                      A
 Frequencies --   3123.4064              3132.0693              3133.5956
 Red. masses --      1.1017                 1.0997                 1.0992
 Frc consts  --      6.3327                 6.3559                 6.3595
 IR Inten    --     72.2388                47.6582                53.2032

                     85                     86                     87
                      A                      A                      A
 Frequencies --   3134.9021              3137.1871              3164.7602
 Red. masses --      1.1023                 1.0984                 1.0908
 Frc consts  --      6.3825                 6.3695                 6.4370
 IR Inten    --     81.5808                15.4338                16.1217

 - Thermochemistry -
 -------------------
 Temperature   298.150 Kelvin.  Pressure   1.00000 Atm.
 Atom     1 has atomic number  6 and mass  12.00000

 Molecular mass:   186.12559 amu.
 Principal axes and moments of inertia in atomic units:
                           1         2         3
     Eigenvalues --  1106.813543864.688634064.89996
           X            0.99982  -0.01740   0.00727
           Y            0.01701   0.99856   0.05081
           Z           -0.00814  -0.05067   0.99868
 This molecule is an asymmetric top.
 Rotational symmetry number  1.
 Warning -- assumption of classical behavior for rotation
           may cause significant error
 Rotational temperatures (Kelvin)      0.07826     0.02241     0.02131
 Rotational constants (GHZ):           1.63057     0.46698     0.44398
    1 imaginary frequencies ignored.
 Zero-point vibrational energy     736528.9 (Joules/Mol)
                                  176.03463 (Kcal/Mol)
 Warning -- explicit consideration of  16 degrees of freedom as
           vibrations may cause significant error
 Vibrational temperatures:     86.76   100.14   189.01   233.02   309.05
          (Kelvin)            346.66   390.20   442.80   501.86   570.05
                              591.31   633.47   654.44   719.70   792.20
                              851.61   948.13  1048.10  1117.49  1185.71
                             1211.08  1231.75  1278.93  1302.16  1316.59
                             1326.42  1335.94  1363.77  1398.21  1472.64
                             1507.24  1532.63  1541.02  1547.83  1565.64
                             1626.30  1647.74  1655.36  1679.09  1718.88
                             1741.62  1752.17  1790.75  1807.93  1856.47
                             1869.33  1907.84  1918.15  1933.97  1960.72
                             1973.52  1978.92  1993.36  1997.15  2005.63
                             2026.42  2036.68  2047.91  2058.07  2083.06
                             2118.46  2135.74  2143.18  2149.31  2160.48
                             2162.42  2181.95  2185.12  4354.18  4375.05
                             4398.53  4413.60  4414.18  4421.22  4433.98
                             4437.63  4441.87  4474.42  4484.06  4485.87
                             4493.89  4506.35  4508.55  4510.42  4513.71
                             4553.38

 Zero-point correction=                           0.280529 (Hartree/Particle)
 Thermal correction to Energy=                    0.291629
 Thermal correction to Enthalpy=                  0.292574
 Thermal correction to Gibbs Free Energy=         0.243398
 Sum of electronic and zero-point Energies=           -617.201718
 Sum of electronic and thermal Energies=              -617.190618
 Sum of electronic and thermal Enthalpies=            -617.189674
 Sum of electronic and thermal Free Energies=         -617.238849

                     E (Thermal)             CV                S
                      KCal/Mol        Cal/Mol-Kelvin    Cal/Mol-Kelvin
 Total                  183.000             45.045            103.498
 Electronic               0.000              0.000              0.000
 Translational            0.889              2.981             41.570
 Rotational               0.889              2.981             31.231
 Vibrational            181.223             39.083             30.698
 Vibration     1          0.597              1.973              4.447
 Vibration     2          0.598              1.969              4.165
 Vibration     3          0.612              1.922              2.926
 Vibration     4          0.622              1.889              2.527
 Vibration     5          0.645              1.818              2.003
 Vibration     6          0.658              1.778              1.796
 Vibration     7          0.675              1.726              1.589
 Vibration     8          0.698              1.659              1.374
 Vibration     9          0.726              1.578              1.172
 Vibration    10          0.763              1.478              0.977
 Vibration    11          0.775              1.446              0.923
 Vibration    12          0.800              1.382              0.826
 Vibration    13          0.813              1.350              0.781
 Vibration    14          0.856              1.250              0.658
 Vibration    15          0.906              1.138              0.543
 Vibration    16          0.949              1.049              0.464

 Optimization completed.
    -- Stationary point found.
 Normal termination of Gaussian 16 at Sun Nov  4 23:00:22 2018.
