 Gaussian 16, Revision A.03,
 Gaussian 16:  ES64L-G16RevA.03 25-Dec-2016

 ----------------------------------------------------------------------
 #M062X/6-311++G(2d,2p) opt=ModRedundant freq=noraman SCRF=(Solvent=Wat
 er)
 ----------------------------------------------------------------------

 ----------------------------
 D_a1-4_2SO_PHI.inp_extract_8
 ----------------------------
 Symbolic Z-matrix:
 Charge =  0 Multiplicity = 1

 SCF Done:  E(RM062X) =  -617.489097833     A.U. after   12 cycles
 SCF Done:  E(RM062X) =  -617.490790181     A.U. after   10 cycles
 SCF Done:  E(RM062X) =  -617.490939369     A.U. after   10 cycles
 SCF Done:  E(RM062X) =  -617.491057554     A.U. after    9 cycles
 SCF Done:  E(RM062X) =  -617.491064345     A.U. after    8 cycles
 SCF Done:  E(RM062X) =  -617.491065321     A.U. after    8 cycles
 SCF Done:  E(RM062X) =  -617.491065235     A.U. after    8 cycles
 SCF Done:  E(RM062X) =  -617.491065280     A.U. after    6 cycles
 SCF Done:  E(RM062X) =  -617.491065342     A.U. after    6 cycles
 Optimization completed.
    -- Stationary point found.
 Normal termination of Gaussian 16 at Sun Nov  4 22:00:34 2018.

 ----------------------------------------------------------------------
 #N Geom=AllCheck Guess=TCheck SCRF=Check GenChk RM062X/6-311++G(2d,2p)
  Freq
 ----------------------------------------------------------------------

 Structure from the checkpoint file:  "D_a1-4_2SO_PHI.inp_extract_8.chk"
 ----------------------------
 D_a1-4_2SO_PHI.inp_extract_8
 ----------------------------
 Charge =  0 Multiplicity = 1

                         Standard orientation:
 ---------------------------------------------------------------------
 Center     Atomic      Atomic             Coordinates (Angstroms)
 Number     Number       Type             X           Y           Z
 ---------------------------------------------------------------------
      1          6           0       -0.864481    0.242308    0.256019
      2          6           0       -3.773097   -0.104779   -0.153092
      3          8           0        2.243325   -0.869676   -1.136489
      4          6           0       -1.736035   -0.962044    0.640024
      5          6           0       -1.727997    1.283007   -0.455248
      6          8           0        0.184679   -0.090695   -0.642337
      7          6           0        1.707941   -0.693650    1.210220
      8          6           0        2.388885    0.671214    1.283243
      9          6           0        1.204260   -0.973952   -0.201441
     10          6           0        3.480873    0.739645    0.216605
     11          6           0        2.892721    0.404793   -1.143257
     12          6           0       -3.134059    1.259917    0.135479
     13          8           0       -2.793430   -1.134797   -0.283423
     14          1           0       -0.450510    0.678901    1.168218
     15          1           0       -4.481904   -0.377660    0.634122
     16          1           0       -4.302122   -0.084770   -1.104424
     17          1           0       -1.157694   -1.883693    0.636766
     18          1           0       -2.136305   -0.822636    1.649973
     19          1           0       -1.772138    1.018146   -1.512739
     20          1           0       -1.270465    2.267440   -0.376675
     21          1           0        0.900597   -0.790827    1.935254
     22          1           0        2.431992   -1.478053    1.438399
     23          1           0        1.658243    1.464022    1.103219
     24          1           0        2.804640    0.833374    2.276881
     25          1           0        0.854849   -2.005247   -0.283861
     26          1           0        3.933444    1.730812    0.177759
     27          1           0        4.270391    0.022520    0.453123
     28          1           0        3.664740    0.330205   -1.905584
     29          1           0        2.177305    1.172475   -1.446120
     30          1           0       -3.081949    1.439800    1.210779
     31          1           0       -3.753771    2.047782   -0.288411
 ---------------------------------------------------------------------

 SCF Done:  E(RM062X) =  -617.491065342     A.U. after    1 cycles

 The electronic state is 1-A.
 Alpha  occ. eigenvalues --  -19.63189 -19.63043 -19.62908 -10.63758 -10.59044
 Alpha  occ. eigenvalues --  -10.58223 -10.58093 -10.57768 -10.53419 -10.53363
 Alpha  occ. eigenvalues --  -10.53311 -10.53307 -10.52982  -1.20035  -1.16500
 Alpha  occ. eigenvalues --   -1.13323  -0.90516  -0.90242  -0.86764  -0.85000
 Alpha  occ. eigenvalues --   -0.75685  -0.74349  -0.73207  -0.70755  -0.64865
 Alpha  occ. eigenvalues --   -0.62482  -0.60373  -0.58469  -0.58396  -0.57400
 Alpha  occ. eigenvalues --   -0.54964  -0.53012  -0.52587  -0.50690  -0.49096
 Alpha  occ. eigenvalues --   -0.47461  -0.47092  -0.45942  -0.45686  -0.45042
 Alpha  occ. eigenvalues --   -0.44007  -0.42767  -0.41538  -0.40106  -0.39475
 Alpha  occ. eigenvalues --   -0.38391  -0.38027  -0.37034  -0.35225  -0.33150
 Alpha  occ. eigenvalues --   -0.31478
 Alpha virt. eigenvalues --   -0.00199   0.00761   0.00980   0.01020   0.02221
 Alpha virt. eigenvalues --    0.02448   0.02671   0.03442   0.03619   0.04390
 Alpha virt. eigenvalues --    0.04589   0.04847   0.05397   0.06196   0.07201

 Mulliken charges:
               1
     1  C   -0.156625
     2  C   -0.221082
     3  O   -0.291852
     4  C   -0.377847
     5  C   -0.167249
     6  O   -0.333515
     7  C   -0.287408
     8  C   -0.250502
     9  C   -0.065607
    10  C   -0.365262
    11  C   -0.235510
    12  C   -0.362472
    13  O   -0.320534
    14  H    0.202276
    15  H    0.169713
    16  H    0.171687
    17  H    0.188910
    18  H    0.197030
    19  H    0.198034
    20  H    0.174538
    21  H    0.197336
    22  H    0.222533
    23  H    0.164706
    24  H    0.188478
    25  H    0.283426
    26  H    0.170596
    27  H    0.168727
    28  H    0.212692
    29  H    0.163895
    30  H    0.180455
    31  H    0.180431
 Sum of Mulliken charges =  -0.00000

 Dipole moment (field-independent basis, Debye):
    X=             -0.2333    Y=              2.8494    Z=              4.1181  Tot=              5.0132
 Quadrupole moment (field-independent basis, Debye-Ang):
   XX=            -73.9800   YY=            -80.9121   ZZ=            -81.7157
   XY=             -2.4562   XZ=              0.5722   YZ=             -4.5461

  Exact polarizability: 176.075  -0.357 154.721  -1.788  -2.274 152.234
 Approx polarizability: 147.553  -1.778 142.150  -1.348  -0.331 141.437

                      1                      2                      3
                      A                      A                      A
 Frequencies --     41.0899                47.7397                89.5027
 Red. masses --      3.5830                 3.5540                 3.3367
 Frc consts  --      0.0036                 0.0048                 0.0157
 IR Inten    --      0.0561                 0.3569                 1.5194

                      4                      5                      6
                      A                      A                      A
 Frequencies --    133.5609               175.8559               221.8475
 Red. masses --      3.4742                 2.8098                 2.2341
 Frc consts  --      0.0365                 0.0512                 0.0648
 IR Inten    --      0.3550                 6.9280                 2.8613

                      7                      8                      9
                      A                      A                      A
 Frequencies --    237.3672               282.6008               312.7924
 Red. masses --      3.1107                 2.8438                 2.5316
 Frc consts  --      0.1033                 0.1338                 0.1459
 IR Inten    --      6.3169                 2.6231                 4.4215

                     10                     11                     12
                      A                      A                      A
 Frequencies --    365.1376               409.9571               436.9800
 Red. masses --      2.3951                 2.8843                 2.2205
 Frc consts  --      0.1881                 0.2856                 0.2498
 IR Inten    --     10.0789                12.5996                 1.0755

                     13                     14                     15
                      A                      A                      A
 Frequencies --    447.2609               461.6140               539.9867
 Red. masses --      3.5707                 2.6343                 2.3136
 Frc consts  --      0.4208                 0.3307                 0.3975
 IR Inten    --      3.4651                 3.6898                 1.9378

                     16                     17                     18
                      A                      A                      A
 Frequencies --    557.1549               587.0625               663.5466
 Red. masses --      4.0127                 2.4726                 2.3769
 Frc consts  --      0.7339                 0.5021                 0.6166
 IR Inten    --      6.1279                 1.6692                16.0388

                     19                     20                     21
                      A                      A                      A
 Frequencies --    708.0713               826.4001               832.6423
 Red. masses --      2.7084                 2.1462                 1.9757
 Frc consts  --      0.8000                 0.8636                 0.8070
 IR Inten    --      5.2039                 3.9738                 3.5686

                     22                     23                     24
                      A                      A                      A
 Frequencies --    843.2434               865.0764               889.1215
 Red. masses --      2.3388                 2.1168                 2.3440
 Frc consts  --      0.9798                 0.9333                 1.0918
 IR Inten    --      3.4897                11.1504                 8.4578

                     25                     26                     27
                      A                      A                      A
 Frequencies --    904.9900               916.1918               918.7248
 Red. masses --      2.3800                 2.5393                 2.2081
 Frc consts  --      1.1485                 1.2558                 1.0981
 IR Inten    --     36.0068                27.5795                49.0118

                     28                     29                     30
                      A                      A                      A
 Frequencies --    930.9084               955.5931               988.2874
 Red. masses --      1.7090                 1.7023                 2.0418
 Frc consts  --      0.8726                 0.9159                 1.1750
 IR Inten    --     17.1420                 5.3082                32.6272

                     31                     32                     33
                      A                      A                      A
 Frequencies --   1020.1606              1046.0219              1065.6913
 Red. masses --      2.2097                 2.2263                 1.6497
 Frc consts  --      1.3550                 1.4352                 1.1039
 IR Inten    --     31.2733                81.9077                77.9509

                     34                     35                     36
                      A                      A                      A
 Frequencies --   1067.5722              1075.9813              1083.4111
 Red. masses --      1.7517                 2.1656                 2.1168
 Frc consts  --      1.1763                 1.4772                 1.4639
 IR Inten    --     51.7875                12.9858               149.8035

                     37                     38                     39
                      A                      A                      A
 Frequencies --   1136.3584              1146.5128              1154.1938
 Red. masses --      2.2814                 3.1941                 2.6360
 Frc consts  --      1.7357                 2.4738                 2.0690
 IR Inten    --    101.4589               147.2524                47.8386

                     40                     41                     42
                      A                      A                      A
 Frequencies --   1180.7377              1188.1253              1214.3749
 Red. masses --      2.7012                 3.1939                 1.4657
 Frc consts  --      2.2188                 2.6564                 1.2735
 IR Inten    --     53.1083                79.3168                54.8529

                     43                     44                     45
                      A                      A                      A
 Frequencies --   1221.2395              1240.9434              1257.4721
 Red. masses --      1.4294                 1.8699                 1.5204
 Frc consts  --      1.2560                 1.6966                 1.4164
 IR Inten    --     14.8459                93.5083                34.9508

                     46                     47                     48
                      A                      A                      A
 Frequencies --   1285.1968              1291.6203              1320.6326
 Red. masses --      1.2200                 1.1880                 1.1563
 Frc consts  --      1.1873                 1.1677                 1.1882
 IR Inten    --     28.1104                11.3601                 4.8706

                     49                     50                     51
                      A                      A                      A
 Frequencies --   1330.2266              1345.2742              1358.4647
 Red. masses --      1.1770                 1.3142                 1.3202
 Frc consts  --      1.2270                 1.4013                 1.4354
 IR Inten    --     15.0951                 1.7304                13.0327

                     52                     53                     54
                      A                      A                      A
 Frequencies --   1371.0790              1374.6994              1379.5443
 Red. masses --      1.5219                 1.3137                 1.4284
 Frc consts  --      1.6856                 1.4627                 1.6017
 IR Inten    --      6.3599                 8.9613                 8.0278

                     55                     56                     57
                      A                      A                      A
 Frequencies --   1387.6986              1392.8052              1401.7799
 Red. masses --      1.5592                 1.3995                 1.2375
 Frc consts  --      1.7690                 1.5996                 1.4327
 IR Inten    --     16.0603                15.6954                 5.3747

                     58                     59                     60
                      A                      A                      A
 Frequencies --   1409.2348              1421.1147              1428.1519
 Red. masses --      1.3796                 1.3638                 1.3835
 Frc consts  --      1.6143                 1.6228                 1.6626
 IR Inten    --      4.7471                 5.6050                 3.0669

                     61                     62                     63
                      A                      A                      A
 Frequencies --   1441.4361              1480.8987              1490.8133
 Red. masses --      1.3584                 1.0962                 1.0937
 Frc consts  --      1.6629                 1.4165                 1.4321
 IR Inten    --     19.5534                 3.9116                 9.7743

                     64                     65                     66
                      A                      A                      A
 Frequencies --   1491.7585              1496.5349              1503.2766
 Red. masses --      1.0977                 1.0916                 1.0898
 Frc consts  --      1.4393                 1.4405                 1.4511
 IR Inten    --      2.6017                10.3140                27.1505

                     67                     68                     69
                      A                      A                      A
 Frequencies --   1504.4249              1509.3154              1517.6692
 Red. masses --      1.0857                 1.0952                 1.0982
 Frc consts  --      1.4478                 1.4699                 1.4904
 IR Inten    --      6.7213                 3.7126                 4.5870

                     70                     71                     72
                      A                      A                      A
 Frequencies --   3035.7868              3043.3969              3060.3745
 Red. masses --      1.0713                 1.0677                 1.0684
 Frc consts  --      5.8170                 5.8265                 5.8959
 IR Inten    --     47.0397                87.0896                22.5181

                     73                     74                     75
                      A                      A                      A
 Frequencies --   3065.1651              3068.4153              3070.4705
 Red. masses --      1.0640                 1.0815                 1.0710
 Frc consts  --      5.8897                 5.9993                 5.9491
 IR Inten    --     35.3458                74.6975                51.8021

                     76                     77                     78
                      A                      A                      A
 Frequencies --   3072.0023              3075.9755              3084.5295
 Red. masses --      1.0717                 1.0684                 1.0640
 Frc consts  --      5.9589                 5.9558                 5.9642
 IR Inten    --     27.7308                21.8797                27.2742

                     79                     80                     81
                      A                      A                      A
 Frequencies --   3085.5663              3115.0099              3117.4230
 Red. masses --      1.0671                 1.0969                 1.0960
 Frc consts  --      5.9861                 6.2708                 6.2753
 IR Inten    --     80.3670                35.6207                15.8813

                     82                     83                     84
                      A                      A                      A
 Frequencies --   3118.8282              3126.0947              3134.7830
 Red. masses --      1.1010                 1.1008                 1.0984
 Frc consts  --      6.3099                 6.3383                 6.3594
 IR Inten    --     66.0532                47.9839                65.3392

                     85                     86                     87
                      A                      A                      A
 Frequencies --   3136.5318              3138.0209              3140.3253
 Red. masses --      1.1043                 1.1015                 1.0942
 Frc consts  --      6.4011                 6.3904                 6.3575
 IR Inten    --     47.8340                40.6300                22.2367

 - Thermochemistry -
 -------------------
 Temperature   298.150 Kelvin.  Pressure   1.00000 Atm.
 Atom     1 has atomic number  6 and mass  12.00000

 Molecular mass:   186.12559 amu.
 Principal axes and moments of inertia in atomic units:
                           1         2         3
     Eigenvalues --   949.417044304.167674404.11925
           X            0.99999  -0.00119   0.00367
           Y            0.00177   0.98648  -0.16390
           Z           -0.00343   0.16391   0.98647
 This molecule is an asymmetric top.
 Rotational symmetry number  1.
 Warning -- assumption of classical behavior for rotation
           may cause significant error
 Rotational temperatures (Kelvin)      0.09123     0.02012     0.01967
 Rotational constants (GHZ):           1.90089     0.41930     0.40978
 Zero-point vibrational energy     737566.3 (Joules/Mol)
                                  176.28257 (Kcal/Mol)
 Warning -- explicit consideration of  17 degrees of freedom as
           vibrations may cause significant error
 Vibrational temperatures:     59.12    68.69   128.77   192.16   253.02
          (Kelvin)            319.19   341.52   406.60   450.04   525.35
                              589.84   628.72   643.51   664.16   776.92
                              801.62   844.65   954.70  1018.76  1189.01
                             1197.99  1213.24  1244.65  1279.25  1302.08
                             1318.20  1321.84  1339.37  1374.89  1421.93
                             1467.78  1504.99  1533.29  1536.00  1548.10
                             1558.79  1634.97  1649.58  1660.63  1698.82
                             1709.45  1747.21  1757.09  1785.44  1809.22
                             1849.11  1858.35  1900.10  1913.90  1935.55
                             1954.53  1972.68  1977.89  1984.86  1996.59
                             2003.94  2016.85  2027.57  2044.67  2054.79
                             2073.91  2130.68  2144.95  2146.31  2153.18
                             2162.88  2164.53  2171.57  2183.59  4367.82
                             4378.77  4403.20  4410.09  4414.77  4417.72
                             4419.93  4425.64  4437.95  4439.44  4481.80
                             4485.28  4487.30  4497.75  4510.25  4512.77
                             4514.91  4518.23

 Zero-point correction=                           0.280924 (Hartree/Particle)
 Thermal correction to Energy=                    0.292699
 Thermal correction to Enthalpy=                  0.293644
 Thermal correction to Gibbs Free Energy=         0.242330
 Sum of electronic and zero-point Energies=           -617.210141
 Sum of electronic and thermal Energies=              -617.198366
 Sum of electronic and thermal Enthalpies=            -617.197422
 Sum of electronic and thermal Free Energies=         -617.248736

                     E (Thermal)             CV                S
                      KCal/Mol        Cal/Mol-Kelvin    Cal/Mol-Kelvin
 Total                  183.672             46.625            107.999
 Electronic               0.000              0.000              0.000
 Translational            0.889              2.981             41.570
 Rotational               0.889              2.981             31.265
 Vibrational            181.894             40.664             35.164
 Vibration     1          0.594              1.981              5.206
 Vibration     2          0.595              1.978              4.909
 Vibration     3          0.602              1.957              3.671
 Vibration     4          0.613              1.920              2.894
 Vibration     5          0.628              1.872              2.372
 Vibration     6          0.648              1.808              1.944
 Vibration     7          0.656              1.783              1.823
 Vibration     8          0.682              1.706              1.518
 Vibration     9          0.701              1.649              1.348
 Vibration    10          0.738              1.544              1.100
 Vibration    11          0.774              1.449              0.927
 Vibration    12          0.797              1.390              0.836
 Vibration    13          0.806              1.367              0.804
 Vibration    14          0.819              1.335              0.761
 Vibration    15          0.895              1.162              0.565
 Vibration    16          0.913              1.124              0.530
 Vibration    17          0.944              1.059              0.472

 Optimization completed.
    -- Stationary point found.
 Normal termination of Gaussian 16 at Sun Nov  4 22:55:23 2018.
