 Gaussian 16, Revision A.03,
 Gaussian 16:  ES64L-G16RevA.03 25-Dec-2016

 ----------------------------------------------------------------------
 #M062X/6-311++G(2d,2p) opt=ModRedundant freq=noraman SCRF=(Solvent=Wat
 er)
 ----------------------------------------------------------------------

 -----------------------------
 D_a1-4_2SO_PHI.inp_extract_11
 -----------------------------
 Symbolic Z-matrix:
 Charge =  0 Multiplicity = 1

 SCF Done:  E(RM062X) =  -617.483717564     A.U. after   12 cycles
 SCF Done:  E(RM062X) =  -617.484357152     A.U. after   10 cycles
 SCF Done:  E(RM062X) =  -617.485189331     A.U. after   11 cycles
 SCF Done:  E(RM062X) =  -617.485498175     A.U. after   10 cycles
 SCF Done:  E(RM062X) =  -617.485545012     A.U. after    9 cycles
 SCF Done:  E(RM062X) =  -617.485555147     A.U. after    9 cycles
 SCF Done:  E(RM062X) =  -617.485557024     A.U. after    8 cycles
 SCF Done:  E(RM062X) =  -617.485558443     A.U. after    8 cycles
 SCF Done:  E(RM062X) =  -617.485558519     A.U. after    7 cycles
 Optimization completed.
    -- Stationary point found.
 Normal termination of Gaussian 16 at Sun Nov  4 22:03:45 2018.

 ----------------------------------------------------------------------
 #N Geom=AllCheck Guess=TCheck SCRF=Check GenChk RM062X/6-311++G(2d,2p)
  Freq
 ----------------------------------------------------------------------

 Structure from the checkpoint file:  "D_a1-4_2SO_PHI.inp_extract_11.chk"
 -----------------------------
 D_a1-4_2SO_PHI.inp_extract_11
 -----------------------------
 Charge =  0 Multiplicity = 1

                         Standard orientation:
 ---------------------------------------------------------------------
 Center     Atomic      Atomic             Coordinates (Angstroms)
 Number     Number       Type             X           Y           Z
 ---------------------------------------------------------------------
      1          6           0       -0.771812    0.067195    0.071046
      2          6           0       -3.726571    0.037106    0.174042
      3          8           0        2.350698    0.195332   -1.340685
      4          6           0       -1.699751   -1.147470    0.244674
      5          6           0       -1.617294    1.312447   -0.181904
      6          8           0        0.094239   -0.086598   -1.045237
      7          6           0        1.712269   -1.366470    0.405951
      8          6           0        2.264922   -0.414229    1.474536
      9          6           0        1.357586   -0.717467   -0.938319
     10          6           0        3.259916    0.568427    0.862468
     11          6           0        2.639593    1.197598   -0.370142
     12          6           0       -2.887933    1.228353    0.658164
     13          8           0       -2.920008   -0.962106   -0.446464
     14          1           0       -0.199174    0.204198    0.985642
     15          1           0       -4.283807   -0.410130    1.002472
     16          1           0       -4.435230    0.353199   -0.589457
     17          1           0       -1.232849   -2.036435   -0.174836
     18          1           0       -1.895332   -1.327597    1.307987
     19          1           0       -1.877341    1.337092   -1.241263
     20          1           0       -1.040246    2.208289    0.041319
     21          1           0        0.863425   -1.935600    0.784198
     22          1           0        2.490370   -2.093674    0.167621
     23          1           0        1.465750    0.152056    1.953286
     24          1           0        2.737374   -1.003681    2.259881
     25          1           0        1.371871   -1.484265   -1.711860
     26          1           0        3.533691    1.340823    1.581217
     27          1           0        4.173716    0.049466    0.564897
     28          1           0        3.317140    1.896317   -0.855248
     29          1           0        1.720344    1.735481   -0.112277
     30          1           0       -2.620438    1.106418    1.709484
     31          1           0       -3.474246    2.142081    0.582933
 ---------------------------------------------------------------------

 SCF Done:  E(RM062X) =  -617.485558519     A.U. after    1 cycles

 The electronic state is 1-A.
 Alpha  occ. eigenvalues --  -19.62964 -19.62901 -19.62858 -10.63898 -10.58972
 Alpha  occ. eigenvalues --  -10.58068 -10.58066 -10.57920 -10.53864 -10.53509
 Alpha  occ. eigenvalues --  -10.53385 -10.53274 -10.53004  -1.19681  -1.16463
 Alpha  occ. eigenvalues --   -1.13325  -0.90499  -0.90369  -0.86942  -0.84865
 Alpha  occ. eigenvalues --   -0.75415  -0.74650  -0.73560  -0.70503  -0.65177
 Alpha  occ. eigenvalues --   -0.62950  -0.59618  -0.59010  -0.57888  -0.57248
 Alpha  occ. eigenvalues --   -0.54814  -0.53086  -0.52763  -0.50412  -0.49954
 Alpha  occ. eigenvalues --   -0.48489  -0.46643  -0.45574  -0.45263  -0.44937
 Alpha  occ. eigenvalues --   -0.44024  -0.42686  -0.41480  -0.40104  -0.39612
 Alpha  occ. eigenvalues --   -0.38627  -0.37246  -0.36762  -0.35698  -0.33260
 Alpha  occ. eigenvalues --   -0.31490
 Alpha virt. eigenvalues --   -0.00260   0.00697   0.00891   0.01103   0.02233
 Alpha virt. eigenvalues --    0.02539   0.02757   0.03344   0.03509   0.04544
 Alpha virt. eigenvalues --    0.04626   0.04923   0.05645   0.06005   0.07314

 Mulliken charges:
               1
     1  C   -0.152833
     2  C   -0.232374
     3  O   -0.257949
     4  C   -0.383561
     5  C   -0.099278
     6  O   -0.310450
     7  C   -0.270594
     8  C   -0.337345
     9  C   -0.171111
    10  C   -0.293708
    11  C   -0.234357
    12  C   -0.344086
    13  O   -0.335366
    14  H    0.234680
    15  H    0.164842
    16  H    0.177555
    17  H    0.215891
    18  H    0.204181
    19  H    0.200578
    20  H    0.160389
    21  H    0.171161
    22  H    0.238363
    23  H    0.175929
    24  H    0.184073
    25  H    0.254738
    26  H    0.159161
    27  H    0.173446
    28  H    0.225918
    29  H    0.124416
    30  H    0.177901
    31  H    0.179791
 Sum of Mulliken charges =  -0.00000

 Dipole moment (field-independent basis, Debye):
    X=              0.3694    Y=              0.7914    Z=              5.1869  Tot=              5.2599
 Quadrupole moment (field-independent basis, Debye-Ang):
   XX=            -78.5058   YY=            -76.5669   ZZ=            -85.3076
   XY=             -5.5917   XZ=              0.7570   YZ=             -0.1869

  Exact polarizability: 174.476  -0.797 157.305  -1.186   0.151 151.446
 Approx polarizability: 147.713  -1.412 141.803  -1.091   1.462 141.902

 ******    1 imaginary frequencies (negative Signs) ******

                      1                      2                      3
                      A                      A                      A
 Frequencies --    -51.5316                50.3939                69.8410
 Red. masses --      4.0112                 3.2944                 3.2205
 Frc consts  --      0.0063                 0.0049                 0.0093
 IR Inten    --      1.3949                 0.5976                 0.4445

                      4                      5                      6
                      A                      A                      A
 Frequencies --    133.4276               177.2321               217.6067
 Red. masses --      3.9540                 2.3996                 2.9689
 Frc consts  --      0.0415                 0.0444                 0.0828
 IR Inten    --      3.3392                 5.8439                 1.0158

                      7                      8                      9
                      A                      A                      A
 Frequencies --    226.6278               288.7999               310.2923
 Red. masses --      2.3743                 2.9503                 2.5178
 Frc consts  --      0.0718                 0.1450                 0.1428
 IR Inten    --      4.5553                 4.4363                 4.0269

                     10                     11                     12
                      A                      A                      A
 Frequencies --    353.5739               381.2341               440.2000
 Red. masses --      2.0153                 2.5101                 3.2683
 Frc consts  --      0.1484                 0.2149                 0.3731
 IR Inten    --      0.8023                12.8317                 7.4291

                     13                     14                     15
                      A                      A                      A
 Frequencies --    443.8863               446.1582               525.4838
 Red. masses --      2.8638                 3.0829                 2.5817
 Frc consts  --      0.3325                 0.3616                 0.4200
 IR Inten    --      0.3729                 3.0345                 2.8465

                     16                     17                     18
                      A                      A                      A
 Frequencies --    553.6183               583.7997               659.5556
 Red. masses --      3.2105                 2.7515                 2.2835
 Frc consts  --      0.5798                 0.5525                 0.5853
 IR Inten    --     11.3554                 2.6409                14.9094

                     19                     20                     21
                      A                      A                      A
 Frequencies --    734.9935               790.4219               826.6440
 Red. masses --      2.9334                 2.4198                 1.7682
 Frc consts  --      0.9337                 0.8908                 0.7119
 IR Inten    --      3.4874                 9.9698                10.7325

                     22                     23                     24
                      A                      A                      A
 Frequencies --    835.4810               862.0149               895.0850
 Red. masses --      2.4474                 1.9911                 2.2241
 Frc consts  --      1.0065                 0.8717                 1.0499
 IR Inten    --      7.9452                 9.5637                 8.1004

                     25                     26                     27
                      A                      A                      A
 Frequencies --    901.3081               915.3348               919.5379
 Red. masses --      2.5322                 2.5292                 2.3220
 Frc consts  --      1.2120                 1.2485                 1.1568
 IR Inten    --     51.0396                19.9436                49.6753

                     28                     29                     30
                      A                      A                      A
 Frequencies --    930.5560               953.8089               973.8823
 Red. masses --      1.7852                 1.9143                 1.8107
 Frc consts  --      0.9108                 1.0261                 1.0118
 IR Inten    --     19.2513                 1.9559                34.2822

                     31                     32                     33
                      A                      A                      A
 Frequencies --   1023.9923              1046.5753              1067.4892
 Red. masses --      2.2008                 2.3295                 1.8713
 Frc consts  --      1.3596                 1.5033                 1.2564
 IR Inten    --     13.9645                91.2042               115.4746

                     34                     35                     36
                      A                      A                      A
 Frequencies --   1070.3088              1070.8911              1090.6694
 Red. masses --      2.0944                 1.7853                 1.9481
 Frc consts  --      1.4136                 1.2063                 1.3653
 IR Inten    --     13.2333               142.2517               121.0225

                     37                     38                     39
                      A                      A                      A
 Frequencies --   1131.8292              1146.2496              1151.7209
 Red. masses --      2.0545                 3.1804                 3.0899
 Frc consts  --      1.5507                 2.4620                 2.4148
 IR Inten    --     62.4379               117.7668                82.3605

                     40                     41                     42
                      A                      A                      A
 Frequencies --   1172.9055              1190.1214              1217.2652
 Red. masses --      2.5608                 3.5196                 1.4410
 Frc consts  --      2.0757                 2.9371                 1.2580
 IR Inten    --     22.9870               121.1700                 5.5235

                     43                     44                     45
                      A                      A                      A
 Frequencies --   1220.3862              1241.7762              1256.3117
 Red. masses --      1.4724                 1.6979                 1.4710
 Frc consts  --      1.2920                 1.5426                 1.3679
 IR Inten    --     78.8806                44.6414                34.5378

                     46                     47                     48
                      A                      A                      A
 Frequencies --   1290.7099              1299.1253              1317.7375
 Red. masses --      1.1978                 1.2380                 1.1839
 Frc consts  --      1.1756                 1.2311                 1.2112
 IR Inten    --     36.0378                29.9171                 7.8137

                     49                     50                     51
                      A                      A                      A
 Frequencies --   1333.8938              1344.4871              1358.5143
 Red. masses --      1.1839                 1.3001                 1.4788
 Frc consts  --      1.2411                 1.3846                 1.6080
 IR Inten    --     16.3127                 0.6516                 0.8025

                     52                     53                     54
                      A                      A                      A
 Frequencies --   1364.2456              1374.9394              1385.0303
 Red. masses --      1.3127                 1.3619                 1.3143
 Frc consts  --      1.4395                 1.5169                 1.4854
 IR Inten    --      3.6136                 4.1222                 3.0207

                     55                     56                     57
                      A                      A                      A
 Frequencies --   1387.0143              1393.4175              1403.1670
 Red. masses --      1.4141                 1.4925                 1.3156
 Frc consts  --      1.6029                 1.7074                 1.5262
 IR Inten    --     10.0963                11.1760                 3.4869

                     58                     59                     60
                      A                      A                      A
 Frequencies --   1412.4226              1420.7023              1426.6872
 Red. masses --      1.3559                 1.3472                 1.3491
 Frc consts  --      1.5937                 1.6020                 1.6179
 IR Inten    --     10.1126                22.3407                 6.1268

                     61                     62                     63
                      A                      A                      A
 Frequencies --   1435.9998              1479.6500              1485.9579
 Red. masses --      1.3141                 1.0978                 1.0833
 Frc consts  --      1.5966                 1.4161                 1.4093
 IR Inten    --      8.2702                 4.8693                13.9718

                     64                     65                     66
                      A                      A                      A
 Frequencies --   1489.6683              1495.8298              1503.3049
 Red. masses --      1.0984                 1.0915                 1.0785
 Frc consts  --      1.4361                 1.4390                 1.4361
 IR Inten    --      1.9000                 9.4907                 8.5629

                     67                     68                     69
                      A                      A                      A
 Frequencies --   1505.8906              1516.5002              1517.6112
 Red. masses --      1.1002                 1.0937                 1.0978
 Frc consts  --      1.4700                 1.4820                 1.4897
 IR Inten    --     12.7736                 4.5996                 3.4943

                     70                     71                     72
                      A                      A                      A
 Frequencies --   3028.2634              3036.0320              3041.4931
 Red. masses --      1.0697                 1.0699                 1.0680
 Frc consts  --      5.7799                 5.8105                 5.8211
 IR Inten    --     63.5395                54.2203                89.6481

                     73                     74                     75
                      A                      A                      A
 Frequencies --   3067.2943              3073.9128              3077.7154
 Red. masses --      1.0630                 1.0687                 1.0684
 Frc consts  --      5.8922                 5.9495                 5.9627
 IR Inten    --     35.3801                28.1982                 8.5439

                     76                     77                     78
                      A                      A                      A
 Frequencies --   3081.3202              3083.2851              3099.3124
 Red. masses --      1.0617                 1.0602                 1.0855
 Frc consts  --      5.9393                 5.9385                 6.1433
 IR Inten    --     21.5450                39.5460                80.7765

                     79                     80                     81
                      A                      A                      A
 Frequencies --   3113.7877              3117.6120              3120.9013
 Red. masses --      1.0975                 1.0956                 1.1014
 Frc consts  --      6.2696                 6.2738                 6.3208
 IR Inten    --     37.3524                16.3305                57.1306

                     82                     83                     84
                      A                      A                      A
 Frequencies --   3125.1118              3131.1265              3134.2692
 Red. masses --      1.0972                 1.1020                 1.0971
 Frc consts  --      6.3132                 6.3657                 6.3498
 IR Inten    --     34.3623                40.1888                44.8613

                     85                     86                     87
                      A                      A                      A
 Frequencies --   3134.4856              3136.5961              3147.6666
 Red. masses --      1.0958                 1.0984                 1.0879
 Frc consts  --      6.3436                 6.3670                 6.3504
 IR Inten    --     48.5206                28.3758                56.4870

 - Thermochemistry -
 -------------------
 Temperature   298.150 Kelvin.  Pressure   1.00000 Atm.
 Atom     1 has atomic number  6 and mass  12.00000

 Molecular mass:   186.12559 amu.
 Principal axes and moments of inertia in atomic units:
                           1         2         3
     Eigenvalues --  1038.189684124.712784234.01348
           X            0.99995  -0.00805   0.00513
           Y            0.00823   0.99929  -0.03666
           Z           -0.00483   0.03670   0.99931
 This molecule is an asymmetric top.
 Rotational symmetry number  1.
 Warning -- assumption of classical behavior for rotation
           may cause significant error
 Rotational temperatures (Kelvin)      0.08343     0.02100     0.02046
 Rotational constants (GHZ):           1.73835     0.43754     0.42625
    1 imaginary frequencies ignored.
 Zero-point vibrational energy     736851.7 (Joules/Mol)
                                  176.11178 (Kcal/Mol)
 Warning -- explicit consideration of  16 degrees of freedom as
           vibrations may cause significant error
 Vibrational temperatures:     72.51   100.49   191.97   255.00   313.09
          (Kelvin)            326.07   415.52   446.44   508.71   548.51
                              633.35   638.65   641.92   756.05   796.53
                              839.96   948.95  1057.49  1137.24  1189.36
                             1202.07  1240.25  1287.83  1296.78  1316.96
                             1323.01  1338.86  1372.32  1401.20  1473.30
                             1505.79  1535.88  1539.94  1540.77  1569.23
                             1628.45  1649.20  1657.07  1687.55  1712.32
                             1751.37  1755.86  1786.64  1807.55  1857.04
                             1869.15  1895.93  1919.18  1934.42  1954.60
                             1962.85  1978.23  1992.75  1995.60  2004.82
                             2018.84  2032.16  2044.07  2052.68  2066.08
                             2128.89  2137.96  2143.30  2152.17  2162.92
                             2166.64  2181.91  2183.50  4357.00  4368.17
                             4376.03  4413.15  4422.67  4428.15  4433.33
                             4436.16  4459.22  4480.05  4485.55  4490.28
                             4496.34  4504.99  4509.51  4509.83  4512.86
                             4528.79

 Zero-point correction=                           0.280652 (Hartree/Particle)
 Thermal correction to Energy=                    0.291697
 Thermal correction to Enthalpy=                  0.292641
 Thermal correction to Gibbs Free Energy=         0.243450
 Sum of electronic and zero-point Energies=           -617.204907
 Sum of electronic and thermal Energies=              -617.193861
 Sum of electronic and thermal Enthalpies=            -617.192917
 Sum of electronic and thermal Free Energies=         -617.242108

                     E (Thermal)             CV                S
                      KCal/Mol        Cal/Mol-Kelvin    Cal/Mol-Kelvin
 Total                  183.043             44.889            103.531
 Electronic               0.000              0.000              0.000
 Translational            0.889              2.981             41.570
 Rotational               0.889              2.981             31.273
 Vibrational            181.265             38.927             30.689
 Vibration     1          0.595              1.977              4.802
 Vibration     2          0.598              1.969              4.158
 Vibration     3          0.613              1.920              2.896
 Vibration     4          0.628              1.870              2.357
 Vibration     5          0.646              1.814              1.979
 Vibration     6          0.650              1.800              1.905
 Vibration     7          0.685              1.695              1.481
 Vibration     8          0.699              1.654              1.361
 Vibration     9          0.730              1.568              1.150
 Vibration    10          0.751              1.510              1.034
 Vibration    11          0.800              1.382              0.826
 Vibration    12          0.803              1.374              0.814
 Vibration    13          0.805              1.369              0.807
 Vibration    14          0.880              1.194              0.597
 Vibration    15          0.909              1.132              0.537
 Vibration    16          0.941              1.066              0.478

 Optimization completed.
    -- Stationary point found.
 Normal termination of Gaussian 16 at Sun Nov  4 22:59:35 2018.
