 Gaussian 16, Revision A.03,
 Gaussian 16:  ES64L-G16RevA.03 25-Dec-2016

 ----------------------------------------------------------------------
 #M062X/6-311++G(2d,2p) opt=ModRedundant freq=noraman SCRF=(Solvent=Wat
 er)
 ----------------------------------------------------------------------

 ----------------------------
 D_a1-4_2SO_PHI.inp_extract_9
 ----------------------------
 Symbolic Z-matrix:
 Charge =  0 Multiplicity = 1

 SCF Done:  E(RM062X) =  -617.487451700     A.U. after   12 cycles
 SCF Done:  E(RM062X) =  -617.488890526     A.U. after   10 cycles
 SCF Done:  E(RM062X) =  -617.489307175     A.U. after   10 cycles
 SCF Done:  E(RM062X) =  -617.489441440     A.U. after    9 cycles
 SCF Done:  E(RM062X) =  -617.489479431     A.U. after    9 cycles
 SCF Done:  E(RM062X) =  -617.489486378     A.U. after    9 cycles
 SCF Done:  E(RM062X) =  -617.489487701     A.U. after    8 cycles
 SCF Done:  E(RM062X) =  -617.489488850     A.U. after    8 cycles
 SCF Done:  E(RM062X) =  -617.489489011     A.U. after    6 cycles
 Optimization completed.
    -- Stationary point found.
 Normal termination of Gaussian 16 at Sun Nov  4 22:02:25 2018.

 ----------------------------------------------------------------------
 #N Geom=AllCheck Guess=TCheck SCRF=Check GenChk RM062X/6-311++G(2d,2p)
  Freq
 ----------------------------------------------------------------------

 Structure from the checkpoint file:  "D_a1-4_2SO_PHI.inp_extract_9.chk"
 ----------------------------
 D_a1-4_2SO_PHI.inp_extract_9
 ----------------------------
 Charge =  0 Multiplicity = 1

                         Standard orientation:
 ---------------------------------------------------------------------
 Center     Atomic      Atomic             Coordinates (Angstroms)
 Number     Number       Type             X           Y           Z
 ---------------------------------------------------------------------
      1          6           0       -0.829153    0.172253    0.196453
      2          6           0       -3.768734   -0.035451   -0.039286
      3          8           0        2.323300   -0.478790   -1.311615
      4          6           0       -1.713307   -1.059980    0.447859
      5          6           0       -1.697694    1.320787   -0.310123
      6          8           0        0.156034   -0.063072   -0.799138
      7          6           0        1.659462   -1.028463    0.942018
      8          6           0        2.302473    0.258858    1.459974
      9          6           0        1.249760   -0.926914   -0.526333
     10          6           0        3.418393    0.691845    0.512136
     11          6           0        2.868255    0.774865   -0.899556
     12          6           0       -3.056752    1.257897    0.379921
     13          8           0       -2.842500   -1.057899   -0.403754
     14          1           0       -0.361100    0.463428    1.137142
     15          1           0       -4.415192   -0.402422    0.763307
     16          1           0       -4.378177    0.133682   -0.925355
     17          1           0       -1.162262   -1.975611    0.239676
     18          1           0       -2.032472   -1.086915    1.495747
     19          1           0       -1.826754    1.199001   -1.386695
     20          1           0       -1.198195    2.272594   -0.138528
     21          1           0        0.816678   -1.339373    1.558673
     22          1           0        2.393035   -1.835638    0.987442
     23          1           0        1.563713    1.060867    1.521468
     24          1           0        2.685403    0.099520    2.467386
     25          1           0        1.014633   -1.919490   -0.915327
     26          1           0        3.826705    1.659920    0.803011
     27          1           0        4.233016   -0.035550    0.536352
     28          1           0        3.646054    1.005174   -1.623857
     29          1           0        2.095020    1.545097   -0.962781
     30          1           0       -2.916804    1.284760    1.462185
     31          1           0       -3.674194    2.114872    0.117830
 ---------------------------------------------------------------------

 SCF Done:  E(RM062X) =  -617.489489011     A.U. after    1 cycles

 The electronic state is 1-A.
 Alpha  occ. eigenvalues --  -19.63125 -19.62985 -19.62896 -10.63852 -10.58984
 Alpha  occ. eigenvalues --  -10.58170 -10.58087 -10.57783 -10.53577 -10.53410
 Alpha  occ. eigenvalues --  -10.53408 -10.53291 -10.52975  -1.19899  -1.16497
 Alpha  occ. eigenvalues --   -1.13315  -0.90464  -0.90368  -0.86817  -0.84999
 Alpha  occ. eigenvalues --   -0.75588  -0.74505  -0.73286  -0.70634  -0.64958
 Alpha  occ. eigenvalues --   -0.62678  -0.60014  -0.58723  -0.58286  -0.57402
 Alpha  occ. eigenvalues --   -0.54981  -0.52976  -0.52607  -0.50645  -0.49330
 Alpha  occ. eigenvalues --   -0.47887  -0.47046  -0.45769  -0.45555  -0.44994
 Alpha  occ. eigenvalues --   -0.43981  -0.42743  -0.41522  -0.39975  -0.39462
 Alpha  occ. eigenvalues --   -0.38584  -0.37799  -0.36958  -0.35442  -0.33169
 Alpha  occ. eigenvalues --   -0.31446
 Alpha virt. eigenvalues --   -0.00221   0.00749   0.00977   0.01022   0.02214
 Alpha virt. eigenvalues --    0.02478   0.02709   0.03404   0.03603   0.04418
 Alpha virt. eigenvalues --    0.04603   0.04888   0.05476   0.06150   0.07186

 Mulliken charges:
               1
     1  C   -0.126734
     2  C   -0.218729
     3  O   -0.269315
     4  C   -0.369684
     5  C   -0.173836
     6  O   -0.336029
     7  C   -0.276254
     8  C   -0.273280
     9  C   -0.130797
    10  C   -0.337839
    11  C   -0.229071
    12  C   -0.364012
    13  O   -0.330285
    14  H    0.200207
    15  H    0.167878
    16  H    0.173231
    17  H    0.204239
    18  H    0.202031
    19  H    0.200783
    20  H    0.171393
    21  H    0.191754
    22  H    0.230114
    23  H    0.165816
    24  H    0.187585
    25  H    0.272633
    26  H    0.167882
    27  H    0.169576
    28  H    0.216739
    29  H    0.153215
    30  H    0.179282
    31  H    0.181505
 Sum of Mulliken charges =  -0.00000

 Dipole moment (field-independent basis, Debye):
    X=             -0.0619    Y=              1.9977    Z=              4.7544  Tot=              5.1574
 Quadrupole moment (field-independent basis, Debye-Ang):
   XX=            -75.6823   YY=            -78.4339   ZZ=            -84.0484
   XY=             -3.2011   XZ=              0.9337   YZ=             -3.3803

  Exact polarizability: 175.833  -0.369 156.150  -1.558  -1.488 151.258
 Approx polarizability: 147.742  -1.592 142.384  -1.321   0.361 141.206

                      1                      2                      3
                      A                      A                      A
 Frequencies --     35.6213                52.8793                72.0632
 Red. masses --      3.6795                 3.7682                 2.9327
 Frc consts  --      0.0028                 0.0062                 0.0090
 IR Inten    --      0.4633                 0.4139                 1.0053

                      4                      5                      6
                      A                      A                      A
 Frequencies --    146.2770               176.0654               210.4244
 Red. masses --      3.9031                 2.6527                 2.4213
 Frc consts  --      0.0492                 0.0484                 0.0632
 IR Inten    --      1.1577                 6.5833                 1.9357

                      7                      8                      9
                      A                      A                      A
 Frequencies --    233.0158               283.0259               311.8230
 Red. masses --      2.9150                 2.8747                 2.4603
 Frc consts  --      0.0933                 0.1357                 0.1409
 IR Inten    --      7.2276                 2.8923                 4.3538

                     10                     11                     12
                      A                      A                      A
 Frequencies --    363.6830               402.9575               437.4006
 Red. masses --      2.2861                 2.6677                 2.3877
 Frc consts  --      0.1781                 0.2552                 0.2691
 IR Inten    --      8.1508                11.0270                 1.7101

                     13                     14                     15
                      A                      A                      A
 Frequencies --    444.0082               457.6206               538.3883
 Red. masses --      3.5303                 2.7552                 2.2281
 Frc consts  --      0.4101                 0.3400                 0.3805
 IR Inten    --      3.8229                 2.6625                 2.2627

                     16                     17                     18
                      A                      A                      A
 Frequencies --    557.1956               584.9114               661.7998
 Red. masses --      4.0319                 2.5877                 2.3448
 Frc consts  --      0.7375                 0.5216                 0.6051
 IR Inten    --      7.2915                 1.9856                15.7056

                     19                     20                     21
                      A                      A                      A
 Frequencies --    714.3451               817.1214               831.4276
 Red. masses --      2.7850                 2.2668                 1.9029
 Frc consts  --      0.8373                 0.8917                 0.7750
 IR Inten    --      4.1261                 5.2835                 6.0705

                     22                     23                     24
                      A                      A                      A
 Frequencies --    841.1103               864.3655               890.2650
 Red. masses --      2.3772                 2.0991                 2.2844
 Frc consts  --      0.9909                 0.9240                 1.0668
 IR Inten    --      4.9944                13.4961                 9.6184

                     25                     26                     27
                      A                      A                      A
 Frequencies --    903.5784               916.0793               920.0890
 Red. masses --      2.3983                 2.5502                 2.2548
 Frc consts  --      1.1537                 1.2609                 1.1247
 IR Inten    --     40.1049                22.8578                52.4523

                     28                     29                     30
                      A                      A                      A
 Frequencies --    931.3521               957.0609               982.2408
 Red. masses --      1.7700                 1.7195                 2.0226
 Frc consts  --      0.9046                 0.9280                 1.1497
 IR Inten    --     18.2284                 2.5003                36.4933

                     31                     32                     33
                      A                      A                      A
 Frequencies --   1022.0618              1045.8214              1067.3089
 Red. masses --      2.2054                 2.2322                 1.7730
 Frc consts  --      1.3574                 1.4384                 1.1900
 IR Inten    --     25.8153                78.5284                14.5228

                     34                     35                     36
                      A                      A                      A
 Frequencies --   1069.1854              1073.6629              1085.4414
 Red. masses --      1.7066                 2.0753                 2.0828
 Frc consts  --      1.1494                 1.4095                 1.4458
 IR Inten    --    157.4947                24.2856               131.8285

                     37                     38                     39
                      A                      A                      A
 Frequencies --   1135.9005              1145.8791              1153.5089
 Red. masses --      2.2461                 3.1394                 2.7697
 Frc consts  --      1.7075                 2.4287                 2.1713
 IR Inten    --     94.5158               130.4516                53.4462

                     40                     41                     42
                      A                      A                      A
 Frequencies --   1180.1223              1189.6927              1215.2376
 Red. masses --      2.5317                 3.7219                 1.4511
 Frc consts  --      2.0774                 3.1037                 1.2626
 IR Inten    --     45.1822               100.0284                56.2605

                     43                     44                     45
                      A                      A                      A
 Frequencies --   1220.0159              1242.0756              1256.6003
 Red. masses --      1.4347                 1.8230                 1.4936
 Frc consts  --      1.2582                 1.6570                 1.3895
 IR Inten    --     34.1843                60.3904                32.5996

                     46                     47                     48
                      A                      A                      A
 Frequencies --   1288.5232              1292.7304              1321.1337
 Red. masses --      1.2247                 1.1841                 1.1635
 Frc consts  --      1.1981                 1.1659                 1.1965
 IR Inten    --     43.0391                 5.9587                 4.5501

                     49                     50                     51
                      A                      A                      A
 Frequencies --   1332.4825              1345.6134              1360.3444
 Red. masses --      1.1749                 1.3199                 1.3260
 Frc consts  --      1.2290                 1.4081                 1.4458
 IR Inten    --     17.6597                 1.4564                 7.0707

                     52                     53                     54
                      A                      A                      A
 Frequencies --   1368.3452              1375.1209              1380.4768
 Red. masses --      1.5087                 1.3169                 1.3755
 Frc consts  --      1.6644                 1.4671                 1.5445
 IR Inten    --      2.8131                 5.9292                 5.5915

                     55                     56                     57
                      A                      A                      A
 Frequencies --   1388.5525              1394.9412              1401.3814
 Red. masses --      1.6279                 1.3431                 1.2391
 Frc consts  --      1.8493                 1.5398                 1.4338
 IR Inten    --     16.4609                12.4681                 4.5590

                     58                     59                     60
                      A                      A                      A
 Frequencies --   1412.4625              1423.2708              1428.1461
 Red. masses --      1.3733                 1.3404                 1.3708
 Frc consts  --      1.6142                 1.5998                 1.6473
 IR Inten    --      7.1014                 8.2251                 6.5425

                     61                     62                     63
                      A                      A                      A
 Frequencies --   1438.9286              1480.4539              1490.2518
 Red. masses --      1.3733                 1.0982                 1.0859
 Frc consts  --      1.6753                 1.4181                 1.4208
 IR Inten    --     17.3544                 3.7161                 9.9108

                     64                     65                     66
                      A                      A                      A
 Frequencies --   1491.7851              1495.3321              1499.3205
 Red. masses --      1.0982                 1.0913                 1.1045
 Frc consts  --      1.4399                 1.4377                 1.4629
 IR Inten    --      1.4211                11.7703                24.2449

                     67                     68                     69
                      A                      A                      A
 Frequencies --   1503.5795              1510.8672              1517.6367
 Red. masses --      1.0793                 1.0945                 1.0984
 Frc consts  --      1.4376                 1.4720                 1.4905
 IR Inten    --      5.4460                 4.0390                 3.4771

                     70                     71                     72
                      A                      A                      A
 Frequencies --   3031.9198              3041.9640              3059.3560
 Red. masses --      1.0699                 1.0681                 1.0686
 Frc consts  --      5.7944                 5.8233                 5.8926
 IR Inten    --     57.0689                89.5035                47.7319

                     73                     74                     75
                      A                      A                      A
 Frequencies --   3066.7087              3069.6416              3072.3514
 Red. masses --      1.0647                 1.0684                 1.0733
 Frc consts  --      5.8999                 5.9314                 5.9691
 IR Inten    --     21.7149                46.7974                19.8507

                     76                     77                     78
                      A                      A                      A
 Frequencies --   3074.6088              3082.9752              3083.5996
 Red. masses --      1.0687                 1.0623                 1.0682
 Frc consts  --      5.9524                 5.9490                 5.9845
 IR Inten    --     25.6373                45.5882                67.5621

                     79                     80                     81
                      A                      A                      A
 Frequencies --   3099.1280              3115.6551              3118.3584
 Red. masses --      1.0836                 1.0972                 1.0956
 Frc consts  --      6.1319                 6.2750                 6.2769
 IR Inten    --     51.9556                28.9314                15.7634

                     82                     83                     84
                      A                      A                      A
 Frequencies --   3120.3547              3125.9183              3130.6664
 Red. masses --      1.1013                 1.1012                 1.0956
 Frc consts  --      6.3176                 6.3396                 6.3265
 IR Inten    --     55.1341                69.2659                35.7524

                     85                     86                     87
                      A                      A                      A
 Frequencies --   3135.6655              3136.4666              3138.2861
 Red. masses --      1.1019                 1.1004                 1.0993
 Frc consts  --      6.3833                 6.3782                 6.3791
 IR Inten    --     36.0653                54.7948                44.3576

 - Thermochemistry -
 -------------------
 Temperature   298.150 Kelvin.  Pressure   1.00000 Atm.
 Atom     1 has atomic number  6 and mass  12.00000

 Molecular mass:   186.12559 amu.
 Principal axes and moments of inertia in atomic units:
                           1         2         3
     Eigenvalues --   969.084194265.668784348.56691
           X            0.99998  -0.00277   0.00478
           Y            0.00352   0.98642  -0.16421
           Z           -0.00426   0.16423   0.98641
 This molecule is an asymmetric top.
 Rotational symmetry number  1.
 Warning -- assumption of classical behavior for rotation
           may cause significant error
 Rotational temperatures (Kelvin)      0.08938     0.02030     0.01992
 Rotational constants (GHZ):           1.86232     0.42309     0.41502
 Zero-point vibrational energy     737414.1 (Joules/Mol)
                                  176.24621 (Kcal/Mol)
 Warning -- explicit consideration of  17 degrees of freedom as
           vibrations may cause significant error
 Vibrational temperatures:     51.25    76.08   103.68   210.46   253.32
          (Kelvin)            302.75   335.26   407.21   448.64   523.26
                              579.77   629.32   638.83   658.41   774.62
                              801.68   841.56   952.18  1027.78  1175.66
                             1196.24  1210.17  1243.63  1280.89  1300.05
                             1318.03  1323.80  1340.01  1377.00  1413.23
                             1470.52  1504.70  1535.62  1538.32  1544.76
                             1561.71  1634.31  1648.66  1659.64  1697.93
                             1711.70  1748.46  1755.33  1787.07  1807.97
                             1853.90  1859.95  1900.82  1917.15  1936.04
                             1957.23  1968.74  1978.49  1986.20  1997.82
                             2007.01  2016.28  2032.22  2047.77  2054.78
                             2070.30  2130.04  2144.14  2146.35  2151.45
                             2157.19  2163.32  2173.80  2183.54  4362.26
                             4376.71  4401.73  4412.31  4416.53  4420.43
                             4423.68  4435.71  4436.61  4458.95  4482.73
                             4486.62  4489.49  4497.50  4504.33  4511.52
                             4512.68  4515.29

 Zero-point correction=                           0.280866 (Hartree/Particle)
 Thermal correction to Energy=                    0.292696
 Thermal correction to Enthalpy=                  0.293640
 Thermal correction to Gibbs Free Energy=         0.242078
 Sum of electronic and zero-point Energies=           -617.208623
 Sum of electronic and thermal Energies=              -617.196793
 Sum of electronic and thermal Enthalpies=            -617.195849
 Sum of electronic and thermal Free Energies=         -617.247411

                     E (Thermal)             CV                S
                      KCal/Mol        Cal/Mol-Kelvin    Cal/Mol-Kelvin
 Total                  183.669             46.697            108.522
 Electronic               0.000              0.000              0.000
 Translational            0.889              2.981             41.570
 Rotational               0.889              2.981             31.264
 Vibrational            181.892             40.735             35.688
 Vibration     1          0.594              1.982              5.489
 Vibration     2          0.596              1.976              4.707
 Vibration     3          0.598              1.967              4.096
 Vibration     4          0.617              1.907              2.720
 Vibration     5          0.628              1.872              2.370
 Vibration     6          0.643              1.825              2.040
 Vibration     7          0.654              1.790              1.856
 Vibration     8          0.682              1.705              1.515
 Vibration     9          0.700              1.651              1.353
 Vibration    10          0.737              1.547              1.106
 Vibration    11          0.768              1.464              0.952
 Vibration    12          0.798              1.389              0.835
 Vibration    13          0.804              1.374              0.814
 Vibration    14          0.816              1.344              0.773
 Vibration    15          0.893              1.165              0.569
 Vibration    16          0.913              1.124              0.529
 Vibration    17          0.942              1.064              0.476

 Optimization completed.
    -- Stationary point found.
 Normal termination of Gaussian 16 at Sun Nov  4 22:58:03 2018.
