 Gaussian 16, Revision A.03,
 Gaussian 16:  ES64L-G16RevA.03 25-Dec-2016

 ----------------------------------------------------------------------
 #M062X/6-311++G(2d,2p) opt=ModRedundant freq=noraman SCRF=(Solvent=Wat
 er)
 ----------------------------------------------------------------------

 -----------------------------
 D_a1-4_2SO_PHI.inp_extract_15
 -----------------------------
 Symbolic Z-matrix:
 Charge =  0 Multiplicity = 1

 SCF Done:  E(RM062X) =  -617.481668551     A.U. after   12 cycles
 SCF Done:  E(RM062X) =  -617.482274254     A.U. after   11 cycles
 SCF Done:  E(RM062X) =  -617.483488993     A.U. after   11 cycles
 SCF Done:  E(RM062X) =  -617.483798446     A.U. after   10 cycles
 SCF Done:  E(RM062X) =  -617.483887220     A.U. after   10 cycles
 SCF Done:  E(RM062X) =  -617.483908338     A.U. after    9 cycles
 SCF Done:  E(RM062X) =  -617.483911411     A.U. after    9 cycles
 SCF Done:  E(RM062X) =  -617.483912494     A.U. after    8 cycles
 SCF Done:  E(RM062X) =  -617.483912499     A.U. after    7 cycles
 Optimization completed.
    -- Stationary point found.
 Normal termination of Gaussian 16 at Sun Nov  4 22:04:49 2018.

 ----------------------------------------------------------------------
 #N Geom=AllCheck Guess=TCheck SCRF=Check GenChk RM062X/6-311++G(2d,2p)
  Freq
 ----------------------------------------------------------------------

 Structure from the checkpoint file:  "D_a1-4_2SO_PHI.inp_extract_15.chk"
 -----------------------------
 D_a1-4_2SO_PHI.inp_extract_15
 -----------------------------
 Charge =  0 Multiplicity = 1

                         Standard orientation:
 ---------------------------------------------------------------------
 Center     Atomic      Atomic             Coordinates (Angstroms)
 Number     Number       Type             X           Y           Z
 ---------------------------------------------------------------------
      1          6           0       -0.723397   -0.309369    0.061663
      2          6           0       -3.560573    0.421356   -0.360190
      3          8           0        2.025878   -1.283350    0.504135
      4          6           0       -1.310969    1.082861   -0.221807
      5          6           0       -1.865842   -1.313923    0.198169
      6          8           0        0.021364   -0.339936    1.274983
      7          6           0        1.942162    1.155002    0.834798
      8          6           0        2.145308    1.342817   -0.665263
      9          6           0        1.430164   -0.231385    1.230269
     10          6           0        3.060013    0.226753   -1.155427
     11          6           0        2.425075   -1.118237   -0.860946
     12          6           0       -2.984630   -0.941089   -0.769318
     13          8           0       -2.602805    1.213521    0.340149
     14          1           0       -0.088833   -0.600091   -0.772417
     15          1           0       -3.916658    0.973643   -1.234821
     16          1           0       -4.392049    0.293058    0.330728
     17          1           0       -0.691777    1.855438    0.226982
     18          1           0       -1.354616    1.261118   -1.302530
     19          1           0       -2.235222   -1.263494    1.223905
     20          1           0       -1.496768   -2.323527    0.026610
     21          1           0        1.271713    1.897310    1.264577
     22          1           0        2.911389    1.283548    1.321441
     23          1           0        1.197403    1.310244   -1.207655
     24          1           0        2.585935    2.320359   -0.856733
     25          1           0        1.708084   -0.420222    2.265730
     26          1           0        3.243682    0.295463   -2.227508
     27          1           0        4.024322    0.298169   -0.647275
     28          1           0        3.129175   -1.928031   -1.042599
     29          1           0        1.569865   -1.275860   -1.521978
     30          1           0       -2.588193   -0.900378   -1.785651
     31          1           0       -3.776816   -1.687356   -0.766637
 ---------------------------------------------------------------------

 SCF Done:  E(RM062X) =  -617.483912499     A.U. after    1 cycles

 The electronic state is 1-A.
 Alpha  occ. eigenvalues --  -19.63315 -19.62843 -19.62780 -10.63937 -10.58838
 Alpha  occ. eigenvalues --  -10.58400 -10.58080 -10.58057 -10.53566 -10.53466
 Alpha  occ. eigenvalues --  -10.53346 -10.53291 -10.53187  -1.19396  -1.16413
 Alpha  occ. eigenvalues --   -1.13263  -0.90865  -0.90541  -0.87178  -0.84706
 Alpha  occ. eigenvalues --   -0.75272  -0.74672  -0.73963  -0.70691  -0.65119
 Alpha  occ. eigenvalues --   -0.63211  -0.59531  -0.58642  -0.57523  -0.56966
 Alpha  occ. eigenvalues --   -0.54849  -0.53279  -0.52972  -0.51487  -0.49615
 Alpha  occ. eigenvalues --   -0.48912  -0.46166  -0.45654  -0.45231  -0.44798
 Alpha  occ. eigenvalues --   -0.43846  -0.42672  -0.41088  -0.40803  -0.40402
 Alpha  occ. eigenvalues --   -0.38651  -0.37209  -0.36722  -0.34616  -0.34008
 Alpha  occ. eigenvalues --   -0.31289
 Alpha virt. eigenvalues --   -0.00272   0.00611   0.00871   0.01168   0.02258
 Alpha virt. eigenvalues --    0.02580   0.02635   0.03271   0.03606   0.04585
 Alpha virt. eigenvalues --    0.04713   0.05127   0.05615   0.05868   0.07278

 Mulliken charges:
               1
     1  C   -0.262399
     2  C   -0.209615
     3  O   -0.306262
     4  C   -0.368998
     5  C   -0.229676
     6  O   -0.234569
     7  C   -0.446716
     8  C   -0.243766
     9  C    0.016245
    10  C   -0.336452
    11  C   -0.239859
    12  C   -0.333020
    13  O   -0.337761
    14  H    0.244475
    15  H    0.163870
    16  H    0.176062
    17  H    0.226863
    18  H    0.224500
    19  H    0.194477
    20  H    0.174359
    21  H    0.197760
    22  H    0.220819
    23  H    0.175722
    24  H    0.210739
    25  H    0.253177
    26  H    0.180430
    27  H    0.168770
    28  H    0.207301
    29  H    0.158190
    30  H    0.173706
    31  H    0.181629
 Sum of Mulliken charges =  -0.00000

 Dipole moment (field-independent basis, Debye):
    X=              1.2674    Y=              0.6051    Z=             -4.1242  Tot=              4.3568
 Quadrupole moment (field-independent basis, Debye-Ang):
   XX=            -73.5571   YY=            -83.6515   ZZ=            -80.3483
   XY=              8.6512   XZ=              2.2554   YZ=              1.8390

  Exact polarizability: 173.280   0.994 154.721   0.381   1.066 155.005
 Approx polarizability: 147.544  -0.096 138.956   0.028   1.335 144.740

                      1                      2                      3
                      A                      A                      A
 Frequencies --     40.8351                61.5877                76.1335
 Red. masses --      3.4037                 3.2356                 4.0892
 Frc consts  --      0.0033                 0.0072                 0.0140
 IR Inten    --      1.6757                 1.0746                 4.6648

                      4                      5                      6
                      A                      A                      A
 Frequencies --    135.9986               170.2797               212.9596
 Red. masses --      3.2612                 3.7784                 2.5074
 Frc consts  --      0.0355                 0.0645                 0.0670
 IR Inten    --      2.4664                 4.6618                 2.9216

                      7                      8                      9
                      A                      A                      A
 Frequencies --    220.7155               277.0593               320.8091
 Red. masses --      2.4159                 2.7350                 2.5801
 Frc consts  --      0.0693                 0.1237                 0.1564
 IR Inten    --      4.9375                 2.4507                 4.3054

                     10                     11                     12
                      A                      A                      A
 Frequencies --    356.4457               384.8346               439.0230
 Red. masses --      2.0519                 2.0220                 3.8783
 Frc consts  --      0.1536                 0.1764                 0.4404
 IR Inten    --      4.2192                 5.9613                 2.5000

                     13                     14                     15
                      A                      A                      A
 Frequencies --    448.1517               456.4124               502.8819
 Red. masses --      3.2837                 2.9605                 4.2357
 Frc consts  --      0.3886                 0.3634                 0.6311
 IR Inten    --      4.3055                 5.8834                 8.9218

                     16                     17                     18
                      A                      A                      A
 Frequencies --    554.7471               592.8671               662.2074
 Red. masses --      2.2659                 2.6827                 2.3156
 Frc consts  --      0.4109                 0.5556                 0.5983
 IR Inten    --      2.8889                 1.0304                20.9894

                     19                     20                     21
                      A                      A                      A
 Frequencies --    734.8688               777.3104               825.6279
 Red. masses --      3.3531                 2.6340                 1.6573
 Frc consts  --      1.0669                 0.9377                 0.6656
 IR Inten    --     10.2840                12.5766                 7.1514

                     22                     23                     24
                      A                      A                      A
 Frequencies --    848.7713               856.7322               889.4272
 Red. masses --      1.9075                 2.3337                 2.3461
 Frc consts  --      0.8096                 1.0092                 1.0935
 IR Inten    --     10.6810                 1.5319                22.1948

                     25                     26                     27
                      A                      A                      A
 Frequencies --    895.3639               915.4159               918.5280
 Red. masses --      2.3911                 2.5144                 2.3049
 Frc consts  --      1.1294                 1.2414                 1.1458
 IR Inten    --     30.0038                12.9968                59.1731

                     28                     29                     30
                      A                      A                      A
 Frequencies --    937.4256               956.9222               973.4418
 Red. masses --      1.8673                 1.6164                 1.8268
 Frc consts  --      0.9668                 0.8720                 1.0199
 IR Inten    --     12.3376                 3.1540                23.1346

                     31                     32                     33
                      A                      A                      A
 Frequencies --   1019.8898              1051.9759              1061.1182
 Red. masses --      2.2364                 2.4610                 1.7947
 Frc consts  --      1.3706                 1.6046                 1.1906
 IR Inten    --     57.9919                57.6451               145.4407

                     34                     35                     36
                      A                      A                      A
 Frequencies --   1069.8174              1078.4762              1084.4192
 Red. masses --      1.6794                 1.9421                 2.2818
 Frc consts  --      1.1325                 1.3309                 1.5810
 IR Inten    --      2.2137                74.6460               183.4991

                     37                     38                     39
                      A                      A                      A
 Frequencies --   1127.9985              1146.2549              1147.3779
 Red. masses --      1.9430                 3.4712                 3.0034
 Frc consts  --      1.4566                 2.6871                 2.3296
 IR Inten    --     20.9838               149.2776                77.2949

                     40                     41                     42
                      A                      A                      A
 Frequencies --   1168.0602              1185.9987              1216.2626
 Red. masses --      2.4504                 3.0534                 1.4806
 Frc consts  --      1.9698                 2.5305                 1.2905
 IR Inten    --      0.4464               131.6059                 7.8261

                     43                     44                     45
                      A                      A                      A
 Frequencies --   1221.1624              1242.5129              1254.3751
 Red. masses --      1.4369                 1.8279                 1.4736
 Frc consts  --      1.2625                 1.6627                 1.3661
 IR Inten    --     53.9542                86.8873                58.9603

                     46                     47                     48
                      A                      A                      A
 Frequencies --   1289.5739              1298.1192              1317.6539
 Red. masses --      1.1985                 1.2399                 1.1784
 Frc consts  --      1.1743                 1.2310                 1.2054
 IR Inten    --     21.5361                34.4897                14.0730

                     49                     50                     51
                      A                      A                      A
 Frequencies --   1332.1283              1340.6902              1352.9912
 Red. masses --      1.2012                 1.2976                 1.4634
 Frc consts  --      1.2559                 1.3742                 1.5784
 IR Inten    --     15.5880                 2.1110                 0.9592

                     52                     53                     54
                      A                      A                      A
 Frequencies --   1362.8450              1374.2095              1387.2057
 Red. masses --      1.3395                 1.3784                 1.3396
 Frc consts  --      1.4659                 1.5337                 1.5189
 IR Inten    --      4.0793                 4.2792                 5.3587

                     55                     56                     57
                      A                      A                      A
 Frequencies --   1390.6226              1393.1920              1403.3588
 Red. masses --      1.3757                 1.5686                 1.3871
 Frc consts  --      1.5675                 1.7939                 1.6096
 IR Inten    --     16.1722                 6.9076                 0.2473

                     58                     59                     60
                      A                      A                      A
 Frequencies --   1414.4186              1423.4169              1430.6765
 Red. masses --      1.3848                 1.3686                 1.3568
 Frc consts  --      1.6323                 1.6338                 1.6362
 IR Inten    --      9.2060                 9.8462                18.0205

                     61                     62                     63
                      A                      A                      A
 Frequencies --   1445.8682              1482.4077              1488.9524
 Red. masses --      1.1835                 1.0968                 1.0921
 Frc consts  --      1.4577                 1.4201                 1.4265
 IR Inten    --      3.6162                 3.1134                 3.9615

                     64                     65                     66
                      A                      A                      A
 Frequencies --   1492.1497              1497.0965              1502.9479
 Red. masses --      1.0934                 1.0873                 1.0804
 Frc consts  --      1.4344                 1.4358                 1.4379
 IR Inten    --      8.9910                13.6702                 5.3649

                     67                     68                     69
                      A                      A                      A
 Frequencies --   1504.8510              1517.2552              1534.7788
 Red. masses --      1.1034                 1.0986                 1.0868
 Frc consts  --      1.4721                 1.4901                 1.5083
 IR Inten    --     16.7158                 3.0395                 3.9293

                     70                     71                     72
                      A                      A                      A
 Frequencies --   3028.5675              3041.6950              3058.5374
 Red. masses --      1.0714                 1.0681                 1.0700
 Frc consts  --      5.7898                 5.8220                 5.8974
 IR Inten    --     63.0125                91.3151                46.0283

                     73                     74                     75
                      A                      A                      A
 Frequencies --   3067.3165              3070.6027              3073.3807
 Red. masses --      1.0645                 1.0664                 1.0688
 Frc consts  --      5.9008                 5.9238                 5.9479
 IR Inten    --     31.3429                13.6144                26.2233

                     76                     77                     78
                      A                      A                      A
 Frequencies --   3076.9798              3082.1624              3110.9493
 Red. masses --      1.0619                 1.0607                 1.0872
 Frc consts  --      5.9237                 5.9371                 6.1995
 IR Inten    --     39.7080                43.2074                66.0597

                     79                     80                     81
                      A                      A                      A
 Frequencies --   3117.0549              3118.3821              3120.6798
 Red. masses --      1.0957                 1.0973                 1.0970
 Frc consts  --      6.2724                 6.2867                 6.2945
 IR Inten    --     16.6992                38.9834                54.9855

                     82                     83                     84
                      A                      A                      A
 Frequencies --   3124.4925              3129.9127              3131.3233
 Red. masses --      1.0999                 1.0994                 1.0995
 Frc consts  --      6.3267                 6.3453                 6.3519
 IR Inten    --     41.4713                14.6852                66.9471

                     85                     86                     87
                      A                      A                      A
 Frequencies --   3135.3543              3149.6491              3154.7756
 Red. masses --      1.0995                 1.0870                 1.0930
 Frc consts  --      6.3684                 6.3533                 6.4091
 IR Inten    --     56.5933                44.7982                25.3294

 - Thermochemistry -
 -------------------
 Temperature   298.150 Kelvin.  Pressure   1.00000 Atm.
 Atom     1 has atomic number  6 and mass  12.00000

 Molecular mass:   186.12559 amu.
 Principal axes and moments of inertia in atomic units:
                           1         2         3
     Eigenvalues --  1130.645743796.929904020.06140
           X            0.99983   0.01869   0.00049
           Y           -0.01870   0.99930   0.03256
           Z            0.00011  -0.03256   0.99947
 This molecule is an asymmetric top.
 Rotational symmetry number  1.
 Warning -- assumption of classical behavior for rotation
           may cause significant error
 Rotational temperatures (Kelvin)      0.07661     0.02281     0.02155
 Rotational constants (GHZ):           1.59620     0.47532     0.44893
 Zero-point vibrational energy     737430.2 (Joules/Mol)
                                  176.25006 (Kcal/Mol)
 Warning -- explicit consideration of  17 degrees of freedom as
           vibrations may cause significant error
 Vibrational temperatures:     58.75    88.61   109.54   195.67   244.99
          (Kelvin)            306.40   317.56   398.63   461.57   512.85
                              553.69   631.66   644.79   656.68   723.53
                              798.16   853.00   952.77  1057.31  1118.38
                             1187.89  1221.19  1232.65  1279.69  1288.23
                             1317.08  1321.56  1348.75  1376.80  1400.57
                             1467.39  1513.56  1526.71  1539.23  1551.69
                             1560.24  1622.94  1649.21  1650.82  1680.58
                             1706.39  1749.93  1756.98  1787.70  1804.77
                             1855.41  1867.70  1895.81  1916.64  1928.95
                             1946.65  1960.83  1977.18  1995.88  2000.80
                             2004.49  2019.12  2035.03  2047.98  2058.42
                             2080.28  2132.85  2142.27  2146.87  2153.99
                             2162.41  2165.14  2182.99  2208.20  4357.43
                             4376.32  4400.55  4413.18  4417.91  4421.91
                             4427.09  4434.54  4475.96  4484.75  4486.66
                             4489.96  4495.45  4503.25  4505.28  4511.08
                             4531.64  4539.02

 Zero-point correction=                           0.280872 (Hartree/Particle)
 Thermal correction to Energy=                    0.292757
 Thermal correction to Enthalpy=                  0.293701
 Thermal correction to Gibbs Free Energy=         0.242267
 Sum of electronic and zero-point Energies=           -617.203040
 Sum of electronic and thermal Energies=              -617.191156
 Sum of electronic and thermal Enthalpies=            -617.190212
 Sum of electronic and thermal Free Energies=         -617.241646

                     E (Thermal)             CV                S
                      KCal/Mol        Cal/Mol-Kelvin    Cal/Mol-Kelvin
 Total                  183.707             46.890            108.252
 Electronic               0.000              0.000              0.000
 Translational            0.889              2.981             41.570
 Rotational               0.889              2.981             31.224
 Vibrational            181.930             40.929             35.459
 Vibration     1          0.594              1.981              5.218
 Vibration     2          0.597              1.973              4.406
 Vibration     3          0.599              1.965              3.988
 Vibration     4          0.614              1.917              2.859
 Vibration     5          0.625              1.879              2.432
 Vibration     6          0.644              1.821              2.018
 Vibration     7          0.647              1.810              1.953
 Vibration     8          0.678              1.716              1.552
 Vibration     9          0.706              1.634              1.306
 Vibration    10          0.732              1.562              1.138
 Vibration    11          0.754              1.503              1.020
 Vibration    12          0.799              1.385              0.830
 Vibration    13          0.807              1.365              0.801
 Vibration    14          0.815              1.347              0.777
 Vibration    15          0.858              1.244              0.651
 Vibration    16          0.910              1.129              0.534
 Vibration    17          0.950              1.047              0.462

                           ! Non-Optimized Parameters !
 Normal termination of Gaussian 16 at Sun Nov  4 22:59:11 2018.
