 Gaussian 16, Revision A.03,
 Gaussian 16:  ES64L-G16RevA.03 25-Dec-2016

 ----------------------------------------------------------------------
 #M062X/6-311++G(2d,2p) opt=ModRedundant freq=noraman SCRF=(Solvent=Wat
 er)
 ----------------------------------------------------------------------

 -----------------------------
 D_a1-4_2SO_PHI.inp_extract_19
 -----------------------------
 Symbolic Z-matrix:
 Charge =  0 Multiplicity = 1

 SCF Done:  E(RM062X) =  -617.482424642     A.U. after   12 cycles
 SCF Done:  E(RM062X) =  -617.482961717     A.U. after   12 cycles
 SCF Done:  E(RM062X) =  -617.484193523     A.U. after   11 cycles
 SCF Done:  E(RM062X) =  -617.484489290     A.U. after   10 cycles
 SCF Done:  E(RM062X) =  -617.484573359     A.U. after    9 cycles
 SCF Done:  E(RM062X) =  -617.484581360     A.U. after    9 cycles
 SCF Done:  E(RM062X) =  -617.484583605     A.U. after    8 cycles
 SCF Done:  E(RM062X) =  -617.484584191     A.U. after    8 cycles
 SCF Done:  E(RM062X) =  -617.484584265     A.U. after    6 cycles
 Optimization completed.
    -- Stationary point found.
 Normal termination of Gaussian 16 at Sun Nov  4 22:03:58 2018.

 ----------------------------------------------------------------------
 #N Geom=AllCheck Guess=TCheck SCRF=Check GenChk RM062X/6-311++G(2d,2p)
  Freq
 ----------------------------------------------------------------------

 Structure from the checkpoint file:  "D_a1-4_2SO_PHI.inp_extract_19.chk"
 -----------------------------
 D_a1-4_2SO_PHI.inp_extract_19
 -----------------------------
 Charge =  0 Multiplicity = 1

                         Standard orientation:
 ---------------------------------------------------------------------
 Center     Atomic      Atomic             Coordinates (Angstroms)
 Number     Number       Type             X           Y           Z
 ---------------------------------------------------------------------
      1          6           0        0.855984   -0.471146    0.189850
      2          6           0        3.505011    0.826211   -0.082818
      3          8           0       -1.735395   -1.113449    0.878213
      4          6           0        1.181127    1.031063    0.189653
      5          6           0        2.138700   -1.253309   -0.098859
      6          8           0       -0.093683   -0.806541   -0.814001
      7          6           0       -2.399973   -0.290288   -1.330659
      8          6           0       -2.630677    1.098474   -0.747786
      9          6           0       -1.450852   -1.132816   -0.490902
     10          6           0       -3.046448    0.953673    0.712821
     11          6           0       -1.984501    0.171144    1.461360
     12          6           0        3.316694   -0.550397    0.568811
     13          8           0        2.288569    1.317024   -0.643382
     14          1           0        0.475834   -0.759035    1.168728
     15          1           0        3.889341    1.552084    0.639956
     16          1           0        4.203687    0.763273   -0.915343
     17          1           0        0.339072    1.596481   -0.201827
     18          1           0        1.385252    1.376162    1.209907
     19          1           0        2.289035   -1.272793   -1.179538
     20          1           0        2.032586   -2.281796    0.241695
     21          1           0       -2.004390   -0.248424   -2.344421
     22          1           0       -3.352942   -0.822780   -1.369591
     23          1           0       -1.718123    1.694279   -0.814333
     24          1           0       -3.393987    1.622017   -1.321924
     25          1           0       -1.569578   -2.182104   -0.766162
     26          1           0       -3.170742    1.924839    1.192023
     27          1           0       -4.000408    0.425371    0.776932
     28          1           0       -2.284656   -0.037764    2.485544
     29          1           0       -1.058583    0.752030    1.495024
     30          1           0        3.118946   -0.444773    1.637277
     31          1           0        4.233338   -1.128996    0.470584
 ---------------------------------------------------------------------

 SCF Done:  E(RM062X) =  -617.484584265     A.U. after    1 cycles

 The electronic state is 1-A.
 Alpha  occ. eigenvalues --  -19.63960 -19.62770 -19.62358 -10.63808 -10.58622
 Alpha  occ. eigenvalues --  -10.58469 -10.58001 -10.57950 -10.53313 -10.53251
 Alpha  occ. eigenvalues --  -10.53222 -10.53135 -10.52993  -1.19683  -1.16378
 Alpha  occ. eigenvalues --   -1.13103  -0.91011  -0.90106  -0.87350  -0.84290
 Alpha  occ. eigenvalues --   -0.75203  -0.74398  -0.73684  -0.70667  -0.64921
 Alpha  occ. eigenvalues --   -0.62640  -0.60132  -0.58833  -0.58168  -0.56627
 Alpha  occ. eigenvalues --   -0.54308  -0.53196  -0.52907  -0.50734  -0.49320
 Alpha  occ. eigenvalues --   -0.48152  -0.46319  -0.46004  -0.45448  -0.44985
 Alpha  occ. eigenvalues --   -0.43742  -0.42357  -0.41756  -0.40463  -0.39691
 Alpha  occ. eigenvalues --   -0.38837  -0.37191  -0.36388  -0.35367  -0.33763
 Alpha  occ. eigenvalues --   -0.30785
 Alpha virt. eigenvalues --   -0.00197   0.00698   0.00906   0.01101   0.02253
 Alpha virt. eigenvalues --    0.02524   0.02577   0.03297   0.03596   0.04485
 Alpha virt. eigenvalues --    0.04738   0.04871   0.05554   0.05813   0.07295

 Mulliken charges:
               1
     1  C   -0.321444
     2  C   -0.198254
     3  O   -0.285537
     4  C   -0.325704
     5  C   -0.280620
     6  O   -0.204978
     7  C   -0.233842
     8  C   -0.283766
     9  C   -0.128371
    10  C   -0.367744
    11  C   -0.149676
    12  C   -0.374690
    13  O   -0.325673
    14  H    0.269312
    15  H    0.161343
    16  H    0.175239
    17  H    0.274139
    18  H    0.221416
    19  H    0.188926
    20  H    0.175961
    21  H    0.180868
    22  H    0.195522
    23  H    0.138648
    24  H    0.202587
    25  H    0.240170
    26  H    0.182140
    27  H    0.171559
    28  H    0.211365
    29  H    0.133315
    30  H    0.174808
    31  H    0.182982
 Sum of Mulliken charges =  -0.00000

 Dipole moment (field-independent basis, Debye):
    X=             -0.7449    Y=              0.6650    Z=              2.4093  Tot=              2.6081
 Quadrupole moment (field-independent basis, Debye-Ang):
   XX=            -69.9669   YY=            -83.2814   ZZ=            -80.9514
   XY=             -6.0778   XZ=              4.9769   YZ=              4.1406

  Exact polarizability: 175.029  -0.561 154.942   1.233   3.703 154.263
 Approx polarizability: 147.790   1.094 140.396  -0.360   1.790 143.479

 ******    1 imaginary frequencies (negative Signs) ******

                      1                      2                      3
                      A                      A                      A
 Frequencies --    -55.1337                60.8758                66.3339
 Red. masses --      4.3294                 3.8085                 2.8613
 Frc consts  --      0.0078                 0.0083                 0.0074
 IR Inten    --      7.7630                 2.1355                 0.8019

                      4                      5                      6
                      A                      A                      A
 Frequencies --    131.6352               171.7831               214.6134
 Red. masses --      3.1413                 2.7467                 2.3047
 Frc consts  --      0.0321                 0.0478                 0.0625
 IR Inten    --      1.4822                 1.2924                 3.7891

                      7                      8                      9
                      A                      A                      A
 Frequencies --    246.5941               274.1033               299.8716
 Red. masses --      3.9763                 2.9097                 2.4368
 Frc consts  --      0.1425                 0.1288                 0.1291
 IR Inten    --      5.9076                 2.9515                 8.8446

                     10                     11                     12
                      A                      A                      A
 Frequencies --    350.3327               390.4852               419.8575
 Red. masses --      1.8963                 2.8548                 2.1038
 Frc consts  --      0.1371                 0.2565                 0.2185
 IR Inten    --      2.5921                16.2237                 4.7281

                     13                     14                     15
                      A                      A                      A
 Frequencies --    438.7942               457.0669               513.7463
 Red. masses --      3.2782                 3.2649                 3.1743
 Frc consts  --      0.3719                 0.4019                 0.4936
 IR Inten    --      2.8253                 1.4456                 1.0687

                     16                     17                     18
                      A                      A                      A
 Frequencies --    551.1661               592.5614               657.4139
 Red. masses --      2.9540                 2.7756                 2.2382
 Frc consts  --      0.5287                 0.5742                 0.5699
 IR Inten    --      7.2865                 0.2513                17.0743

                     19                     20                     21
                      A                      A                      A
 Frequencies --    724.6107               791.2311               828.3151
 Red. masses --      3.1604                 2.4662                 1.7811
 Frc consts  --      0.9777                 0.9097                 0.7200
 IR Inten    --      3.0633                12.8454                 3.2757

                     22                     23                     24
                      A                      A                      A
 Frequencies --    842.5263               856.4241               890.7387
 Red. masses --      2.2970                 1.9223                 2.4523
 Frc consts  --      0.9607                 0.8307                 1.1464
 IR Inten    --      5.3801                 7.0055                13.2447

                     25                     26                     27
                      A                      A                      A
 Frequencies --    904.8080               914.8887               921.5996
 Red. masses --      2.4327                 2.4813                 2.3104
 Frc consts  --      1.1734                 1.2237                 1.1562
 IR Inten    --     24.6510                22.6156                53.8179

                     28                     29                     30
                      A                      A                      A
 Frequencies --    927.4479               949.1735               971.7670
 Red. masses --      1.8041                 1.7257                 1.7715
 Frc consts  --      0.9143                 0.9160                 0.9857
 IR Inten    --     10.5982                 6.2092                23.4330

                     31                     32                     33
                      A                      A                      A
 Frequencies --   1027.0904              1045.7233              1063.3581
 Red. masses --      2.2982                 2.4067                 1.7555
 Frc consts  --      1.4284                 1.5506                 1.1695
 IR Inten    --     21.6053               108.4494               136.8140

                     34                     35                     36
                      A                      A                      A
 Frequencies --   1067.6155              1076.1573              1087.7154
 Red. masses --      1.6819                 2.1269                 2.3661
 Frc consts  --      1.1295                 1.4513                 1.6493
 IR Inten    --     26.3978                13.3263               228.1005

                     37                     38                     39
                      A                      A                      A
 Frequencies --   1129.2560              1144.3156              1149.6824
 Red. masses --      2.0576                 2.9461                 3.1495
 Frc consts  --      1.5459                 2.2729                 2.4527
 IR Inten    --     43.2985               158.7874                19.2416

                     40                     41                     42
                      A                      A                      A
 Frequencies --   1165.2184              1193.3159              1210.1608
 Red. masses --      2.7586                 2.8547                 1.3841
 Frc consts  --      2.2067                 2.3951                 1.1943
 IR Inten    --     17.5070               160.4622                 6.6443

                     43                     44                     45
                      A                      A                      A
 Frequencies --   1216.6972              1243.0265              1255.2919
 Red. masses --      1.3799                 1.9622                 1.5150
 Frc consts  --      1.2035                 1.7863                 1.4066
 IR Inten    --     14.1305               104.0500                50.4799

                     46                     47                     48
                      A                      A                      A
 Frequencies --   1289.6960              1294.3428              1324.0919
 Red. masses --      1.1799                 1.2269                 1.1650
 Frc consts  --      1.1563                 1.2110                 1.2034
 IR Inten    --     28.9972                31.6645                13.7107

                     49                     50                     51
                      A                      A                      A
 Frequencies --   1332.6302              1343.9796              1360.2737
 Red. masses --      1.1783                 1.3158                 1.3529
 Frc consts  --      1.2329                 1.4003                 1.4749
 IR Inten    --     17.2630                 0.3238                 3.1426

                     52                     53                     54
                      A                      A                      A
 Frequencies --   1369.6403              1372.6249              1383.6819
 Red. masses --      1.4368                 1.3108                 1.2952
 Frc consts  --      1.5881                 1.4550                 1.4611
 IR Inten    --      1.7121                 8.3880                12.7898

                     55                     56                     57
                      A                      A                      A
 Frequencies --   1387.9008              1394.0577              1405.8877
 Red. masses --      1.4799                 1.7245                 1.3186
 Frc consts  --      1.6796                 1.9746                 1.5355
 IR Inten    --      1.7046                19.2258                 5.5511

                     58                     59                     60
                      A                      A                      A
 Frequencies --   1415.2775              1420.8828              1425.4250
 Red. masses --      1.3110                 1.3015                 1.3316
 Frc consts  --      1.5472                 1.5481                 1.5941
 IR Inten    --      2.4995                 6.9654                 3.0296

                     61                     62                     63
                      A                      A                      A
 Frequencies --   1449.6010              1475.0215              1486.0242
 Red. masses --      1.3240                 1.0998                 1.0897
 Frc consts  --      1.6392                 1.4098                 1.4177
 IR Inten    --     16.6056                 5.5200                 7.9933

                     64                     65                     66
                      A                      A                      A
 Frequencies --   1489.3854              1493.7871              1500.5903
 Red. masses --      1.0950                 1.0974                 1.1038
 Frc consts  --      1.4312                 1.4427                 1.4644
 IR Inten    --      1.6821                 7.7082                25.6702

                     67                     68                     69
                      A                      A                      A
 Frequencies --   1503.0084              1516.6668              1518.7098
 Red. masses --      1.0850                 1.0989                 1.0932
 Frc consts  --      1.4442                 1.4894                 1.4856
 IR Inten    --      2.0672                 4.6785                 1.2956

                     70                     71                     72
                      A                      A                      A
 Frequencies --   3026.4492              3039.6238              3063.3359
 Red. masses --      1.0715                 1.0683                 1.0684
 Frc consts  --      5.7827                 5.8154                 5.9074
 IR Inten    --     65.2950                91.6999                36.3287

                     73                     74                     75
                      A                      A                      A
 Frequencies --   3066.5929              3069.6420              3072.7749
 Red. masses --      1.0734                 1.0626                 1.0685
 Frc consts  --      5.9475                 5.8990                 5.9441
 IR Inten    --     10.9001                53.1584                23.0378

                     76                     77                     78
                      A                      A                      A
 Frequencies --   3077.0753              3079.8661              3080.7534
 Red. masses --      1.0660                 1.0737                 1.0609
 Frc consts  --      5.9468                 6.0009                 5.9327
 IR Inten    --     17.4804                98.2759                60.2874

                     79                     80                     81
                      A                      A                      A
 Frequencies --   3114.4877              3116.2217              3117.6823
 Red. masses --      1.0862                 1.0955                 1.0978
 Frc consts  --      6.2077                 6.2676                 6.2868
 IR Inten    --     17.6133                13.7006                35.6608

                     82                     83                     84
                      A                      A                      A
 Frequencies --   3122.0461              3131.3182              3133.4869
 Red. masses --      1.1021                 1.1001                 1.0992
 Frc consts  --      6.3292                 6.3552                 6.3590
 IR Inten    --     72.1682                39.7718                59.5404

                     85                     86                     87
                      A                      A                      A
 Frequencies --   3134.7169              3138.7039              3154.2194
 Red. masses --      1.1014                 1.0991                 1.0923
 Frc consts  --      6.3768                 6.3795                 6.4027
 IR Inten    --     71.4350                24.0230                19.7228

 - Thermochemistry -
 -------------------
 Temperature   298.150 Kelvin.  Pressure   1.00000 Atm.
 Atom     1 has atomic number  6 and mass  12.00000

 Molecular mass:   186.12559 amu.
 Principal axes and moments of inertia in atomic units:
                           1         2         3
     Eigenvalues --  1087.347643900.287284086.33462
           X            0.99983  -0.01659   0.00822
           Y            0.01594   0.99715   0.07372
           Z           -0.00941  -0.07358   0.99724
 This molecule is an asymmetric top.
 Rotational symmetry number  1.
 Warning -- assumption of classical behavior for rotation
           may cause significant error
 Rotational temperatures (Kelvin)      0.07966     0.02221     0.02120
 Rotational constants (GHZ):           1.65976     0.46272     0.44165
    1 imaginary frequencies ignored.
 Zero-point vibrational energy     736466.4 (Joules/Mol)
                                  176.01970 (Kcal/Mol)
 Warning -- explicit consideration of  16 degrees of freedom as
           vibrations may cause significant error
 Vibrational temperatures:     87.59    95.44   189.39   247.16   308.78
          (Kelvin)            354.79   394.37   431.45   504.05   561.82
                              604.08   631.33   657.62   739.17   793.01
                              852.56   945.87  1042.55  1138.41  1191.76
                             1212.21  1232.20  1281.57  1301.82  1316.32
                             1325.98  1334.39  1365.65  1398.16  1477.75
                             1504.56  1529.94  1536.06  1548.35  1564.98
                             1624.75  1646.41  1654.14  1676.49  1716.92
                             1741.15  1750.56  1788.44  1806.09  1855.58
                             1862.27  1905.07  1917.36  1933.69  1957.13
                             1970.61  1974.90  1990.81  1996.88  2005.74
                             2022.76  2036.27  2044.33  2050.87  2085.65
                             2122.23  2138.06  2142.89  2149.23  2159.01
                             2162.49  2182.15  2185.08  4354.39  4373.34
                             4407.46  4412.14  4416.53  4421.04  4427.23
                             4431.24  4432.52  4481.05  4483.55  4485.65
                             4491.93  4505.27  4508.39  4510.16  4515.89
                             4538.22

 Zero-point correction=                           0.280505 (Hartree/Particle)
 Thermal correction to Energy=                    0.291575
 Thermal correction to Enthalpy=                  0.292519
 Thermal correction to Gibbs Free Energy=         0.243399
 Sum of electronic and zero-point Energies=           -617.204079
 Sum of electronic and thermal Energies=              -617.193009
 Sum of electronic and thermal Enthalpies=            -617.192065
 Sum of electronic and thermal Free Energies=         -617.241186

                     E (Thermal)             CV                S
                      KCal/Mol        Cal/Mol-Kelvin    Cal/Mol-Kelvin
 Total                  182.966             44.986            103.383
 Electronic               0.000              0.000              0.000
 Translational            0.889              2.981             41.570
 Rotational               0.889              2.981             31.228
 Vibrational            181.189             39.024             30.585
 Vibration     1          0.597              1.973              4.429
 Vibration     2          0.598              1.970              4.259
 Vibration     3          0.612              1.922              2.922
 Vibration     4          0.626              1.877              2.416
 Vibration     5          0.645              1.819              2.004
 Vibration     6          0.661              1.768              1.755
 Vibration     7          0.676              1.721              1.570
 Vibration     8          0.692              1.674              1.418
 Vibration     9          0.727              1.575              1.165
 Vibration    10          0.758              1.491              0.998
 Vibration    11          0.783              1.427              0.892
 Vibration    12          0.799              1.386              0.830
 Vibration    13          0.815              1.345              0.775
 Vibration    14          0.869              1.220              0.625
 Vibration    15          0.906              1.137              0.542
 Vibration    16          0.950              1.048              0.463

 Optimization completed.
    -- Stationary point found.
 Normal termination of Gaussian 16 at Sun Nov  4 22:57:45 2018.
