 Gaussian 16, Revision A.03,
 Gaussian 16:  ES64L-G16RevA.03 25-Dec-2016

 ----------------------------------------------------------------------
 #M062X/6-311++G(2d,2p) opt=ModRedundant freq=noraman SCRF=(Solvent=Wat
 er)
 ----------------------------------------------------------------------

 ----------------------------
 D_a1-4_2SO_PHI.inp_extract_7
 ----------------------------
 Symbolic Z-matrix:
 Charge =  0 Multiplicity = 1

 SCF Done:  E(RM062X) =  -617.489367477     A.U. after   12 cycles
 SCF Done:  E(RM062X) =  -617.490985041     A.U. after   10 cycles
 SCF Done:  E(RM062X) =  -617.491128301     A.U. after   10 cycles
 SCF Done:  E(RM062X) =  -617.491197402     A.U. after    9 cycles
 SCF Done:  E(RM062X) =  -617.491205621     A.U. after    9 cycles
 SCF Done:  E(RM062X) =  -617.491207897     A.U. after    9 cycles
 SCF Done:  E(RM062X) =  -617.491208878     A.U. after    9 cycles
 SCF Done:  E(RM062X) =  -617.491208984     A.U. after    7 cycles
 Optimization completed.
    -- Stationary point found.
 Normal termination of Gaussian 16 at Sun Nov  4 21:58:50 2018.

 ----------------------------------------------------------------------
 #N Geom=AllCheck Guess=TCheck SCRF=Check GenChk RM062X/6-311++G(2d,2p)
  Freq
 ----------------------------------------------------------------------

 Structure from the checkpoint file:  "D_a1-4_2SO_PHI.inp_extract_7.chk"
 ----------------------------
 D_a1-4_2SO_PHI.inp_extract_7
 ----------------------------
 Charge =  0 Multiplicity = 1

                         Standard orientation:
 ---------------------------------------------------------------------
 Center     Atomic      Atomic             Coordinates (Angstroms)
 Number     Number       Type             X           Y           Z
 ---------------------------------------------------------------------
      1          6           0       -0.924221    0.234166    0.335201
      2          6           0       -3.796050   -0.095434   -0.285162
      3          8           0        2.172566   -1.315906   -0.599815
      4          6           0       -1.869225   -0.882855    0.802367
      5          6           0       -1.676648    1.170020   -0.608518
      6          8           0        0.192450   -0.263103   -0.388461
      7          6           0        1.861147   -0.017475    1.406598
      8          6           0        2.529282    1.191892    0.758566
      9          6           0        1.221521   -0.905997    0.344277
     10          6           0        3.518153    0.701992   -0.299044
     11          6           0        2.819550   -0.231475   -1.273845
     12          6           0       -3.128478    1.280105   -0.154035
     13          8           0       -2.849317   -1.157701   -0.180516
     14          1           0       -0.586181    0.797413    1.207814
     15          1           0       -4.572289   -0.226112    0.474551
     16          1           0       -4.250760   -0.207343   -1.267998
     17          1           0       -1.322848   -1.808365    0.970798
     18          1           0       -2.350988   -0.598330    1.743697
     19          1           0       -1.638352    0.739747   -1.610674
     20          1           0       -1.186075    2.141014   -0.643007
     21          1           0        1.132275    0.272064    2.161168
     22          1           0        2.610582   -0.630104    1.911762
     23          1           0        1.770175    1.822959    0.289398
     24          1           0        3.034701    1.795548    1.511339
     25          1           0        0.842873   -1.827364    0.792327
     26          1           0        3.952795    1.535058   -0.852227
     27          1           0        4.335410    0.164931    0.188271
     28          1           0        3.527645   -0.698408   -1.954567
     29          1           0        2.081906    0.317614   -1.862557
     30          1           0       -3.161013    1.625087    0.881040
     31          1           0       -3.675646    2.008630   -0.749230
 ---------------------------------------------------------------------

 SCF Done:  E(RM062X) =  -617.491208984     A.U. after    1 cycles

 The electronic state is 1-A.
 Alpha  occ. eigenvalues --  -19.63161 -19.63036 -19.62852 -10.63710 -10.59005
 Alpha  occ. eigenvalues --  -10.58121 -10.58067 -10.57749 -10.53393 -10.53300
 Alpha  occ. eigenvalues --  -10.53153 -10.53110 -10.52931  -1.20083  -1.16455
 Alpha  occ. eigenvalues --   -1.13326  -0.90497  -0.90077  -0.86761  -0.84807
 Alpha  occ. eigenvalues --   -0.75554  -0.74079  -0.73191  -0.70914  -0.64826
 Alpha  occ. eigenvalues --   -0.62396  -0.60512  -0.58672  -0.58065  -0.57108
 Alpha  occ. eigenvalues --   -0.54881  -0.53299  -0.52454  -0.50446  -0.49130
 Alpha  occ. eigenvalues --   -0.47634  -0.46528  -0.45913  -0.45623  -0.45003
 Alpha  occ. eigenvalues --   -0.44030  -0.42672  -0.41534  -0.40107  -0.39510
 Alpha  occ. eigenvalues --   -0.38452  -0.38115  -0.36844  -0.35025  -0.33186
 Alpha  occ. eigenvalues --   -0.31369
 Alpha virt. eigenvalues --   -0.00178   0.00767   0.00905   0.01102   0.02242
 Alpha virt. eigenvalues --    0.02425   0.02638   0.03442   0.03680   0.04410
 Alpha virt. eigenvalues --    0.04527   0.04861   0.05376   0.05954   0.07157

 Mulliken charges:
               1
     1  C   -0.123512
     2  C   -0.254366
     3  O   -0.297989
     4  C   -0.370159
     5  C   -0.165496
     6  O   -0.320756
     7  C   -0.267693
     8  C   -0.302262
     9  C   -0.049504
    10  C   -0.347646
    11  C   -0.248924
    12  C   -0.322389
    13  O   -0.319687
    14  H    0.202849
    15  H    0.172137
    16  H    0.171414
    17  H    0.196918
    18  H    0.185779
    19  H    0.198735
    20  H    0.164620
    21  H    0.189097
    22  H    0.205316
    23  H    0.159722
    24  H    0.182602
    25  H    0.293315
    26  H    0.169365
    27  H    0.167653
    28  H    0.209113
    29  H    0.167339
    30  H    0.178749
    31  H    0.175661
 Sum of Mulliken charges =  -0.00000

 Dipole moment (field-independent basis, Debye):
    X=             -0.2390    Y=              3.9524    Z=              2.9627  Tot=              4.9453
 Quadrupole moment (field-independent basis, Debye-Ang):
   XX=            -73.9394   YY=            -84.3794   ZZ=            -77.6222
   XY=             -2.2019   XZ=             -0.9526   YZ=             -4.0813

  Exact polarizability: 175.510  -1.265 153.466  -1.778  -2.235 154.207
 Approx polarizability: 147.164  -2.548 141.072  -0.875  -0.842 142.580

 ******    1 imaginary frequencies (negative Signs) ******

                      1                      2                      3
                      A                      A                      A
 Frequencies --    -33.1821                55.2643                68.2779
 Red. masses --      3.6838                 3.8014                 3.0663
 Frc consts  --      0.0024                 0.0068                 0.0084
 IR Inten    --      0.4874                 0.1907                 0.9455

                      4                      5                      6
                      A                      A                      A
 Frequencies --    145.0992               165.2092               222.5610
 Red. masses --      3.4206                 2.9053                 2.0727
 Frc consts  --      0.0424                 0.0467                 0.0605
 IR Inten    --      0.3028                 6.7846                 3.6798

                      7                      8                      9
                      A                      A                      A
 Frequencies --    248.9368               287.0499               311.0585
 Red. masses --      2.9599                 3.0596                 2.5446
 Frc consts  --      0.1081                 0.1485                 0.1451
 IR Inten    --      2.3232                 3.9061                 3.2773

                     10                     11                     12
                      A                      A                      A
 Frequencies --    363.1301               411.5879               437.7551
 Red. masses --      2.3413                 2.9540                 2.2486
 Frc consts  --      0.1819                 0.2948                 0.2539
 IR Inten    --      6.7376                16.9703                 1.2072

                     13                     14                     15
                      A                      A                      A
 Frequencies --    449.9477               458.3274               529.6957
 Red. masses --      3.4433                 2.6448                 2.6800
 Frc consts  --      0.4107                 0.3273                 0.4430
 IR Inten    --      4.6726                 7.4679                 2.2075

                     16                     17                     18
                      A                      A                      A
 Frequencies --    558.8834               586.5393               663.1275
 Red. masses --      3.5193                 2.5383                 2.3178
 Frc consts  --      0.6477                 0.5145                 0.6005
 IR Inten    --      5.6069                 1.9607                15.9114

                     19                     20                     21
                      A                      A                      A
 Frequencies --    702.4973               830.3672               831.9996
 Red. masses --      2.6110                 1.8299                 1.8474
 Frc consts  --      0.7592                 0.7434                 0.7535
 IR Inten    --      5.7336                 2.1545                 4.5937

                     22                     23                     24
                      A                      A                      A
 Frequencies --    841.5674               866.6899               888.9928
 Red. masses --      2.8619                 2.1691                 2.3966
 Frc consts  --      1.1942                 0.9600                 1.1159
 IR Inten    --      2.0718                10.5077                 6.0026

                     25                     26                     27
                      A                      A                      A
 Frequencies --    902.4819               915.7758               919.2461
 Red. masses --      2.3168                 2.4941                 2.2928
 Frc consts  --      1.1118                 1.2324                 1.1415
 IR Inten    --     32.5969                40.2133                41.9229

                     28                     29                     30
                      A                      A                      A
 Frequencies --    929.5444               955.2411               991.7168
 Red. masses --      1.6868                 1.6646                 1.9739
 Frc consts  --      0.8587                 0.8949                 1.1438
 IR Inten    --     15.3142                 2.3076                30.5574

                     31                     32                     33
                      A                      A                      A
 Frequencies --   1019.3394              1044.7445              1063.4651
 Red. masses --      2.2071                 2.2290                 1.5640
 Frc consts  --      1.3511                 1.4334                 1.0422
 IR Inten    --     25.5311                85.8964                80.2978

                     34                     35                     36
                      A                      A                      A
 Frequencies --   1067.8434              1075.5661              1083.2976
 Red. masses --      1.7710                 2.2129                 2.1864
 Frc consts  --      1.1898                 1.5083                 1.5117
 IR Inten    --     17.4827                12.2946               181.8993

                     37                     38                     39
                      A                      A                      A
 Frequencies --   1135.2447              1146.8596              1154.0740
 Red. masses --      2.5154                 2.8642                 2.6919
 Frc consts  --      1.9101                 2.2196                 2.1124
 IR Inten    --    142.0201               148.5491                56.9068

                     40                     41                     42
                      A                      A                      A
 Frequencies --   1176.2482              1185.7203              1211.6712
 Red. masses --      3.5829                 2.5725                 1.4657
 Frc consts  --      2.9207                 2.1309                 1.2679
 IR Inten    --     64.0743                39.2064                37.1086

                     43                     44                     45
                      A                      A                      A
 Frequencies --   1221.5624              1240.0613              1257.5849
 Red. masses --      1.4359                 1.8935                 1.5189
 Frc consts  --      1.2624                 1.7155                 1.4153
 IR Inten    --      4.0313               106.7990                43.5168

                     46                     47                     48
                      A                      A                      A
 Frequencies --   1282.6652              1291.8012              1320.2048
 Red. masses --      1.2221                 1.1934                 1.1544
 Frc consts  --      1.1847                 1.1733                 1.1854
 IR Inten    --     21.6730                 9.1085                 4.9333

                     49                     50                     51
                      A                      A                      A
 Frequencies --   1330.5580              1345.1763              1356.7612
 Red. masses --      1.1801                 1.3114                 1.3343
 Frc consts  --      1.2310                 1.3981                 1.4471
 IR Inten    --     10.5396                 1.2227                18.3274

                     52                     53                     54
                      A                      A                      A
 Frequencies --   1364.3963              1372.5239              1378.6780
 Red. masses --      1.5464                 1.2721                 1.4844
 Frc consts  --      1.6961                 1.4119                 1.6624
 IR Inten    --      1.3195                28.1335                 8.2791

                     55                     56                     57
                      A                      A                      A
 Frequencies --   1384.5679              1390.1277              1400.8678
 Red. masses --      1.4477                 1.4955                 1.2605
 Frc consts  --      1.6352                 1.7028                 1.4575
 IR Inten    --     16.6722                13.9506                 4.1218

                     58                     59                     60
                      A                      A                      A
 Frequencies --   1407.1061              1421.7573              1427.9376
 Red. masses --      1.3681                 1.3608                 1.3875
 Frc consts  --      1.5960                 1.6207                 1.6668
 IR Inten    --     10.3585                 6.1085                 2.8813

                     61                     62                     63
                      A                      A                      A
 Frequencies --   1437.0965              1480.2314              1489.3372
 Red. masses --      1.3709                 1.0958                 1.0899
 Frc consts  --      1.6681                 1.4146                 1.4244
 IR Inten    --     18.7561                 3.3267                 9.2013

                     64                     65                     66
                      A                      A                      A
 Frequencies --   1491.6712              1495.3850              1501.4113
 Red. masses --      1.0974                 1.0922                 1.0977
 Frc consts  --      1.4387                 1.4390                 1.4579
 IR Inten    --      1.5463                13.1111                27.8745

                     67                     68                     69
                      A                      A                      A
 Frequencies --   1503.4933              1511.1832              1517.2978
 Red. masses --      1.0829                 1.0938                 1.0986
 Frc consts  --      1.4423                 1.4717                 1.4902
 IR Inten    --      4.0835                 4.4125                 3.9751

                     70                     71                     72
                      A                      A                      A
 Frequencies --   3038.1012              3042.1447              3060.4121
 Red. masses --      1.0706                 1.0679                 1.0682
 Frc consts  --      5.8224                 5.8228                 5.8949
 IR Inten    --     58.0462                80.8950                29.4493

                     73                     74                     75
                      A                      A                      A
 Frequencies --   3065.4481              3069.9297              3072.4276
 Red. masses --      1.0634                 1.0794                 1.0758
 Frc consts  --      5.8878                 5.9937                 5.9832
 IR Inten    --     44.8431                45.6167                23.7162

                     76                     77                     78
                      A                      A                      A
 Frequencies --   3073.3226              3075.8023              3083.3179
 Red. masses --      1.0675                 1.0690                 1.0614
 Frc consts  --      5.9405                 5.9585                 5.9453
 IR Inten    --     53.0316                14.2946                33.7507

                     79                     80                     81
                      A                      A                      A
 Frequencies --   3086.5012              3114.2865              3117.5278
 Red. masses --      1.0740                 1.0972                 1.0958
 Frc consts  --      6.0284                 6.2697                 6.2748
 IR Inten    --     81.1339                39.8139                16.3915

                     82                     83                     84
                      A                      A                      A
 Frequencies --   3118.9318              3132.4444              3135.3511
 Red. masses --      1.1014                 1.0978                 1.0981
 Frc consts  --      6.3125                 6.3466                 6.3602
 IR Inten    --     67.8506                37.5314                64.5915

                     85                     86                     87
                      A                      A                      A
 Frequencies --   3136.1320              3137.5187              3140.8062
 Red. masses --      1.1032                 1.1021                 1.0947
 Frc consts  --      6.3928                 6.3920                 6.3626
 IR Inten    --     58.2509                36.0959                25.1287

 - Thermochemistry -
 -------------------
 Temperature   298.150 Kelvin.  Pressure   1.00000 Atm.
 Atom     1 has atomic number  6 and mass  12.00000

 Molecular mass:   186.12559 amu.
 Principal axes and moments of inertia in atomic units:
                           1         2         3
     Eigenvalues --   952.134174346.364574534.07471
           X            1.00000  -0.00021   0.00039
           Y            0.00023   0.99778  -0.06660
           Z           -0.00038   0.06660   0.99778
 This molecule is an asymmetric top.
 Rotational symmetry number  1.
 Warning -- assumption of classical behavior for rotation
           may cause significant error
 Rotational temperatures (Kelvin)      0.09097     0.01993     0.01910
 Rotational constants (GHZ):           1.89547     0.41523     0.39804
    1 imaginary frequencies ignored.
 Zero-point vibrational energy     737046.2 (Joules/Mol)
                                  176.15826 (Kcal/Mol)
 Warning -- explicit consideration of  16 degrees of freedom as
           vibrations may cause significant error
 Vibrational temperatures:     79.51    98.24   208.77   237.70   320.22
          (Kelvin)            358.16   413.00   447.54   522.46   592.18
                              629.83   647.37   659.43   762.11   804.11
                              843.90   954.09  1010.74  1194.71  1197.06
                             1210.83  1246.97  1279.06  1298.47  1317.60
                             1322.59  1337.41  1374.38  1426.86  1466.60
                             1503.15  1530.09  1536.39  1547.50  1558.62
                             1633.36  1650.08  1660.46  1692.36  1705.99
                             1743.32  1757.56  1784.17  1809.38  1845.47
                             1858.61  1899.48  1914.38  1935.41  1952.08
                             1963.06  1974.76  1983.61  1992.08  2000.08
                             2015.54  2024.51  2045.59  2054.48  2067.66
                             2129.72  2142.82  2146.18  2151.53  2160.20
                             2163.19  2174.26  2183.05  4371.15  4376.97
                             4403.25  4410.50  4416.94  4420.54  4421.83
                             4425.39  4436.21  4440.79  4480.76  4485.43
                             4487.45  4506.89  4511.07  4512.19  4514.19
                             4518.92

 Zero-point correction=                           0.280726 (Hartree/Particle)
 Thermal correction to Energy=                    0.291661
 Thermal correction to Enthalpy=                  0.292605
 Thermal correction to Gibbs Free Energy=         0.243685
 Sum of electronic and zero-point Energies=           -617.210483
 Sum of electronic and thermal Energies=              -617.199548
 Sum of electronic and thermal Enthalpies=            -617.198604
 Sum of electronic and thermal Free Energies=         -617.247524

                     E (Thermal)             CV                S
                      KCal/Mol        Cal/Mol-Kelvin    Cal/Mol-Kelvin
 Total                  183.020             44.683            102.962
 Electronic               0.000              0.000              0.000
 Translational            0.889              2.981             41.570
 Rotational               0.889              2.981             31.307
 Vibrational            181.242             38.721             30.085
 Vibration     1          0.596              1.975              4.620
 Vibration     2          0.598              1.969              4.202
 Vibration     3          0.616              1.908              2.736
 Vibration     4          0.624              1.885              2.489
 Vibration     5          0.648              1.807              1.938
 Vibration     6          0.662              1.765              1.738
 Vibration     7          0.684              1.698              1.491
 Vibration     8          0.700              1.653              1.357
 Vibration     9          0.737              1.548              1.109
 Vibration    10          0.776              1.445              0.921
 Vibration    11          0.798              1.388              0.834
 Vibration    12          0.809              1.361              0.796
 Vibration    13          0.816              1.342              0.771
 Vibration    14          0.885              1.184              0.588
 Vibration    15          0.914              1.120              0.526
 Vibration    16          0.944              1.061              0.473

 Optimization completed.
    -- Stationary point found.
 Normal termination of Gaussian 16 at Sun Nov  4 22:53:27 2018.
