 Gaussian 16, Revision A.03,
 Gaussian 16:  ES64L-G16RevA.03 25-Dec-2016

 ----------------------------------------------------------------------
 #M062X/6-311++G(2d,2p) opt=ModRedundant freq=noraman SCRF=(Solvent=Wat
 er)
 ----------------------------------------------------------------------

 ----------------------------
 D_a1-4_2SO_PHI.inp_extract_6
 ----------------------------
 Symbolic Z-matrix:
 Charge =  0 Multiplicity = 1

 SCF Done:  E(RM062X) =  -617.490572809     A.U. after   12 cycles
 SCF Done:  E(RM062X) =  -617.492104525     A.U. after   10 cycles
 SCF Done:  E(RM062X) =  -617.492222761     A.U. after    9 cycles
 SCF Done:  E(RM062X) =  -617.492243876     A.U. after    9 cycles
 SCF Done:  E(RM062X) =  -617.492248433     A.U. after    9 cycles
 SCF Done:  E(RM062X) =  -617.492250636     A.U. after    9 cycles
 SCF Done:  E(RM062X) =  -617.492251264     A.U. after    8 cycles
 SCF Done:  E(RM062X) =  -617.492251379     A.U. after    7 cycles
 Optimization completed.
    -- Stationary point found.
 Normal termination of Gaussian 16 at Sun Nov  4 21:57:54 2018.

 ----------------------------------------------------------------------
 #N Geom=AllCheck Guess=TCheck SCRF=Check GenChk RM062X/6-311++G(2d,2p)
  Freq
 ----------------------------------------------------------------------

 Structure from the checkpoint file:  "D_a1-4_2SO_PHI.inp_extract_6.chk"
 ----------------------------
 D_a1-4_2SO_PHI.inp_extract_6
 ----------------------------
 Charge =  0 Multiplicity = 1

                         Standard orientation:
 ---------------------------------------------------------------------
 Center     Atomic      Atomic             Coordinates (Angstroms)
 Number     Number       Type             X           Y           Z
 ---------------------------------------------------------------------
      1          6           0       -0.988430    0.247755    0.422282
      2          6           0       -3.793739   -0.155266   -0.412472
      3          8           0        2.110321   -1.432736   -0.097006
      4          6           0       -1.935193   -0.893637    0.818509
      5          6           0       -1.691845    1.172023   -0.568048
      6          8           0        0.183491   -0.245709   -0.214500
      7          6           0        1.943584    0.535620    1.290359
      8          6           0        2.666710    1.362520    0.230136
      9          6           0        1.224513   -0.652648    0.656050
     10          6           0        3.581724    0.450109   -0.583688
     11          6           0        2.779789   -0.714340   -1.137601
     12          6           0       -3.177234    1.238011   -0.227095
     13          8           0       -2.829593   -1.192397   -0.236376
     14          1           0       -0.720242    0.806107    1.322220
     15          1           0       -4.623064   -0.309933    0.283993
     16          1           0       -4.167196   -0.275306   -1.428051
     17          1           0       -1.368808   -1.800544    1.022928
     18          1           0       -2.495433   -0.628655    1.721465
     19          1           0       -1.564149    0.751037   -1.566862
     20          1           0       -1.227467    2.156430   -0.559829
     21          1           0        1.241141    1.144380    1.857490
     22          1           0        2.664448    0.130517    2.003667
     23          1           0        1.932864    1.828546   -0.431299
     24          1           0        3.235160    2.163718    0.700975
     25          1           0        0.825688   -1.319397    1.425010
     26          1           0        4.048556    0.989488   -1.408345
     27          1           0        4.379436    0.063557    0.055159
     28          1           0        3.419727   -1.445812   -1.625597
     29          1           0        2.043537   -0.358975   -1.862089
     30          1           0       -3.299726    1.577545    0.803030
     31          1           0       -3.697507    1.953146   -0.861398
 ---------------------------------------------------------------------

 SCF Done:  E(RM062X) =  -617.492251380     A.U. after    1 cycles

 The electronic state is 1-A.
 Alpha  occ. eigenvalues --  -19.63179 -19.62966 -19.62828 -10.63722 -10.58998
 Alpha  occ. eigenvalues --  -10.58066 -10.58058 -10.57793 -10.53397 -10.53322
 Alpha  occ. eigenvalues --  -10.53072 -10.53019 -10.52876  -1.20079  -1.16433
 Alpha  occ. eigenvalues --   -1.13424  -0.90486  -0.90001  -0.86788  -0.84701
 Alpha  occ. eigenvalues --   -0.75382  -0.73855  -0.73263  -0.71180  -0.64776
 Alpha  occ. eigenvalues --   -0.62497  -0.60444  -0.58976  -0.57700  -0.56861
 Alpha  occ. eigenvalues --   -0.54852  -0.53484  -0.52349  -0.50251  -0.49370
 Alpha  occ. eigenvalues --   -0.47975  -0.46232  -0.45893  -0.45327  -0.44908
 Alpha  occ. eigenvalues --   -0.44105  -0.42619  -0.41553  -0.40288  -0.39644
 Alpha  occ. eigenvalues --   -0.38522  -0.38195  -0.36745  -0.34868  -0.33258
 Alpha  occ. eigenvalues --   -0.31273
 Alpha virt. eigenvalues --   -0.00177   0.00761   0.00837   0.01137   0.02237
 Alpha virt. eigenvalues --    0.02421   0.02625   0.03489   0.03567   0.04418
 Alpha virt. eigenvalues --    0.04526   0.04787   0.05537   0.05708   0.07134

 Mulliken charges:
               1
     1  C   -0.082089
     2  C   -0.252480
     3  O   -0.297062
     4  C   -0.325628
     5  C   -0.219524
     6  O   -0.302656
     7  C   -0.099195
     8  C   -0.347610
     9  C   -0.146587
    10  C   -0.368636
    11  C   -0.238334
    12  C   -0.313186
    13  O   -0.328014
    14  H    0.192751
    15  H    0.173104
    16  H    0.171883
    17  H    0.216541
    18  H    0.172041
    19  H    0.198046
    20  H    0.154292
    21  H    0.172230
    22  H    0.202420
    23  H    0.165353
    24  H    0.180572
    25  H    0.258777
    26  H    0.166675
    27  H    0.166897
    28  H    0.211468
    29  H    0.165520
    30  H    0.183810
    31  H    0.168621
 Sum of Mulliken charges =  -0.00000

 Dipole moment (field-independent basis, Debye):
    X=             -0.2912    Y=              4.2161    Z=              2.1472  Tot=              4.7404
 Quadrupole moment (field-independent basis, Debye-Ang):
   XX=            -72.9541   YY=            -85.5341   ZZ=            -76.1862
   XY=             -2.5772   XZ=             -2.6546   YZ=             -2.0333

  Exact polarizability: 175.625  -1.725 153.504  -1.626  -1.195 154.200
 Approx polarizability: 147.078  -2.856 140.023  -0.512  -0.366 143.468

                      1                      2                      3
                      A                      A                      A
 Frequencies --     18.4458                48.7672                60.8808
 Red. masses --      3.4504                 4.0718                 3.1122
 Frc consts  --      0.0007                 0.0057                 0.0068
 IR Inten    --      0.6838                 0.5498                 0.9878

                      4                      5                      6
                      A                      A                      A
 Frequencies --    139.2275               158.5402               213.2419
 Red. masses --      3.1645                 3.2085                 2.0461
 Frc consts  --      0.0361                 0.0475                 0.0548
 IR Inten    --      5.6724                 0.1094                 3.4160

                      7                      8                      9
                      A                      A                      A
 Frequencies --    244.1085               284.0863               300.6057
 Red. masses --      2.8402                 2.7929                 2.6288
 Frc consts  --      0.0997                 0.1328                 0.1400
 IR Inten    --      1.1055                 3.6437                 3.0530

                     10                     11                     12
                      A                      A                      A
 Frequencies --    359.3610               409.6616               439.8465
 Red. masses --      2.2498                 2.7049                 2.3208
 Frc consts  --      0.1712                 0.2675                 0.2645
 IR Inten    --      5.7471                12.7907                 1.0646

                     13                     14                     15
                      A                      A                      A
 Frequencies --    448.7194               452.1107               518.0296
 Red. masses --      3.5266                 2.8193                 2.8734
 Frc consts  --      0.4184                 0.3395                 0.4543
 IR Inten    --      4.6918                15.1941                 1.4374

                     16                     17                     18
                      A                      A                      A
 Frequencies --    554.9780               585.5461               662.7890
 Red. masses --      3.2313                 2.7064                 2.2974
 Frc consts  --      0.5864                 0.5467                 0.5946
 IR Inten    --      6.3205                 2.9408                15.4202

                     19                     20                     21
                      A                      A                      A
 Frequencies --    699.9239               828.3012               831.6356
 Red. masses --      2.5904                 1.5518                 2.0624
 Frc consts  --      0.7477                 0.6273                 0.8404
 IR Inten    --      5.5536                 1.5008                 5.7437

                     22                     23                     24
                      A                      A                      A
 Frequencies --    842.1348               869.1032               891.6626
 Red. masses --      2.9836                 2.2239                 2.4521
 Frc consts  --      1.2467                 0.9897                 1.1487
 IR Inten    --      1.5885                10.3661                 5.7987

                     25                     26                     27
                      A                      A                      A
 Frequencies --    903.6444               916.3447               917.7334
 Red. masses --      2.2524                 2.5476                 2.3208
 Frc consts  --      1.0836                 1.2604                 1.1516
 IR Inten    --     40.7974                21.6658                46.9574

                     28                     29                     30
                      A                      A                      A
 Frequencies --    931.5200               952.4757               996.2358
 Red. masses --      1.6540                 1.6516                 1.9538
 Frc consts  --      0.8456                 0.8828                 1.1425
 IR Inten    --     14.5791                 1.7781                26.7313

                     31                     32                     33
                      A                      A                      A
 Frequencies --   1020.1468              1045.1975              1065.5398
 Red. masses --      2.2392                 2.2581                 1.7458
 Frc consts  --      1.3730                 1.4534                 1.1678
 IR Inten    --     30.2980                78.8925                54.1647

                     34                     35                     36
                      A                      A                      A
 Frequencies --   1067.7213              1075.1830              1084.3748
 Red. masses --      1.6160                 2.0669                 2.4531
 Frc consts  --      1.0854                 1.4078                 1.6995
 IR Inten    --     35.3527                17.1320               277.1142

                     37                     38                     39
                      A                      A                      A
 Frequencies --   1134.6483              1144.7994              1152.3662
 Red. masses --      2.4707                 2.5049                 3.0777
 Frc consts  --      1.8741                 1.9342                 2.4080
 IR Inten    --    182.1378               120.7162                46.5384

                     40                     41                     42
                      A                      A                      A
 Frequencies --   1169.2436              1186.6003              1210.8424
 Red. masses --      3.5402                 2.5899                 1.4463
 Frc consts  --      2.8516                 2.1486                 1.2493
 IR Inten    --     23.3937                30.6901                23.7007

                     43                     44                     45
                      A                      A                      A
 Frequencies --   1220.8215              1242.7740              1256.5729
 Red. masses --      1.4453                 1.8922                 1.5218
 Frc consts  --      1.2692                 1.7219                 1.4158
 IR Inten    --      1.0732               113.4204                45.9767

                     46                     47                     48
                      A                      A                      A
 Frequencies --   1282.8754              1290.7878              1320.0879
 Red. masses --      1.2156                 1.1996                 1.1510
 Frc consts  --      1.1788                 1.1776                 1.1817
 IR Inten    --     21.9600                 6.0935                 5.1138

                     49                     50                     51
                      A                      A                      A
 Frequencies --   1330.0936              1341.9065              1355.3903
 Red. masses --      1.1915                 1.3115                 1.3328
 Frc consts  --      1.2420                 1.3914                 1.4426
 IR Inten    --     10.5281                 2.8095                21.3309

                     52                     53                     54
                      A                      A                      A
 Frequencies --   1362.6279              1374.7677              1378.7581
 Red. masses --      1.5556                 1.3097                 1.5189
 Frc consts  --      1.7018                 1.4585                 1.7012
 IR Inten    --      3.3516                18.6359                14.8732

                     55                     56                     57
                      A                      A                      A
 Frequencies --   1383.5789              1392.1984              1399.4715
 Red. masses --      1.3924                 1.4863                 1.2881
 Frc consts  --      1.5705                 1.6973                 1.4863
 IR Inten    --     16.8655                20.3611                 7.4188

                     58                     59                     60
                      A                      A                      A
 Frequencies --   1406.0486              1424.1456              1427.9805
 Red. masses --      1.3591                 1.3361                 1.3712
 Frc consts  --      1.5830                 1.5966                 1.6474
 IR Inten    --     13.1142                 8.4418                 8.3157

                     61                     62                     63
                      A                      A                      A
 Frequencies --   1438.6298              1478.7078              1484.6590
 Red. masses --      1.3796                 1.1004                 1.0850
 Frc consts  --      1.6823                 1.4177                 1.4091
 IR Inten    --      9.3560                 2.7505                12.5764

                     64                     65                     66
                      A                      A                      A
 Frequencies --   1490.1800              1493.9165              1495.7134
 Red. masses --      1.0969                 1.0940                 1.1081
 Frc consts  --      1.4352                 1.4386                 1.4606
 IR Inten    --      1.8531                12.0718                21.5300

                     67                     68                     69
                      A                      A                      A
 Frequencies --   1502.7131              1512.0415              1517.2463
 Red. masses --      1.0791                 1.0935                 1.0984
 Frc consts  --      1.4356                 1.4729                 1.4898
 IR Inten    --      6.5587                 4.6995                 3.6769

                     70                     71                     72
                      A                      A                      A
 Frequencies --   3036.1934              3042.0276              3059.9141
 Red. masses --      1.0697                 1.0678                 1.0696
 Frc consts  --      5.8101                 5.8222                 5.9004
 IR Inten    --     54.3491                85.6824                45.0195

                     73                     74                     75
                      A                      A                      A
 Frequencies --   3062.7987              3068.2929              3068.9173
 Red. masses --      1.0802                 1.0661                 1.0772
 Frc consts  --      5.9703                 5.9134                 5.9775
 IR Inten    --     32.3416                19.9230                39.5733

                     76                     77                     78
                      A                      A                      A
 Frequencies --   3070.0379              3074.7686              3081.8149
 Red. masses --      1.0633                 1.0686                 1.0660
 Frc consts  --      5.9048                 5.9524                 5.9652
 IR Inten    --     38.4427                17.2259                16.8265

                     79                     80                     81
                      A                      A                      A
 Frequencies --   3083.2622              3114.2699              3117.6918
 Red. masses --      1.0674                 1.0974                 1.0957
 Frc consts  --      5.9786                 6.2708                 6.2751
 IR Inten    --    114.1892                38.3654                16.9574

                     82                     83                     84
                      A                      A                      A
 Frequencies --   3119.2434              3130.8050              3132.3507
 Red. masses --      1.1019                 1.0982                 1.0960
 Frc consts  --      6.3169                 6.3424                 6.3360
 IR Inten    --     68.4056                26.0963                70.0222

                     85                     86                     87
                      A                      A                      A
 Frequencies --   3134.2243              3136.2999              3138.2779
 Red. masses --      1.1023                 1.0998                 1.1008
 Frc consts  --      6.3801                 6.3740                 6.3879
 IR Inten    --     37.9005                43.4375                42.0988

 - Thermochemistry -
 -------------------
 Temperature   298.150 Kelvin.  Pressure   1.00000 Atm.
 Atom     1 has atomic number  6 and mass  12.00000

 Molecular mass:   186.12559 amu.
 Principal axes and moments of inertia in atomic units:
                           1         2         3
     Eigenvalues --   950.049124379.672994655.60824
           X            1.00000  -0.00044  -0.00277
           Y            0.00039   0.99983  -0.01834
           Z            0.00277   0.01834   0.99983
 This molecule is an asymmetric top.
 Rotational symmetry number  1.
 Warning -- assumption of classical behavior for rotation
           may cause significant error
 Rotational temperatures (Kelvin)      0.09117     0.01978     0.01860
 Rotational constants (GHZ):           1.89963     0.41207     0.38765
 Zero-point vibrational energy     736374.5 (Joules/Mol)
                                  175.99774 (Kcal/Mol)
 Warning -- explicit consideration of  17 degrees of freedom as
           vibrations may cause significant error
 Vibrational temperatures:     26.54    70.17    87.59   200.32   228.10
          (Kelvin)            306.81   351.22   408.74   432.50   517.04
                              589.41   632.84   645.61   650.49   745.33
                              798.49   842.47   953.61  1007.03  1191.74
                             1196.54  1211.64  1250.45  1282.90  1300.14
                             1318.42  1320.41  1340.25  1370.40  1433.36
                             1467.76  1503.81  1533.07  1536.21  1546.95
                             1560.17  1632.51  1647.11  1658.00  1682.28
                             1707.25  1742.13  1756.49  1788.07  1807.93
                             1845.77  1857.16  1899.31  1913.71  1930.70
                             1950.10  1960.52  1977.98  1983.73  1990.66
                             2003.06  2013.53  2022.99  2049.03  2054.55
                             2069.87  2127.53  2136.09  2144.04  2149.41
                             2152.00  2162.07  2175.49  2182.98  4368.41
                             4376.80  4402.53  4406.68  4414.59  4415.49
                             4417.10  4423.91  4434.04  4436.13  4480.74
                             4485.66  4487.90  4504.53  4506.75  4509.45
                             4512.44  4515.28

 Zero-point correction=                           0.280470 (Hartree/Particle)
 Thermal correction to Energy=                    0.292418
 Thermal correction to Enthalpy=                  0.293362
 Thermal correction to Gibbs Free Energy=         0.240774
 Sum of electronic and zero-point Energies=           -617.211781
 Sum of electronic and thermal Energies=              -617.199833
 Sum of electronic and thermal Enthalpies=            -617.198889
 Sum of electronic and thermal Free Energies=         -617.251478

                     E (Thermal)             CV                S
                      KCal/Mol        Cal/Mol-Kelvin    Cal/Mol-Kelvin
 Total                  183.495             46.803            110.682
 Electronic               0.000              0.000              0.000
 Translational            0.889              2.981             41.570
 Rotational               0.889              2.981             31.338
 Vibrational            181.718             40.841             37.774
 Vibration     1          0.593              1.986              6.795
 Vibration     2          0.595              1.978              4.867
 Vibration     3          0.597              1.973              4.428
 Vibration     4          0.615              1.914              2.814
 Vibration     5          0.621              1.893              2.567
 Vibration     6          0.644              1.821              2.016
 Vibration     7          0.659              1.773              1.773
 Vibration     8          0.682              1.703              1.509
 Vibration     9          0.693              1.673              1.414
 Vibration    10          0.734              1.556              1.125
 Vibration    11          0.774              1.449              0.928
 Vibration    12          0.800              1.383              0.827
 Vibration    13          0.808              1.364              0.800
 Vibration    14          0.811              1.356              0.789
 Vibration    15          0.873              1.210              0.615
 Vibration    16          0.910              1.129              0.534
 Vibration    17          0.943              1.063              0.475

 Optimization completed.
    -- Stationary point found.
 Normal termination of Gaussian 16 at Sun Nov  4 22:50:34 2018.
