 Gaussian 16, Revision A.03,
 Gaussian 16:  ES64L-G16RevA.03 25-Dec-2016

 ----------------------------------------------------------------------
 #M062X/6-311++G(2d,2p) opt=ModRedundant freq=noraman SCRF=(Solvent=Wat
 er)
 ----------------------------------------------------------------------

 -----------------------------
 D_a1-4_2SO_PHI.inp_extract_23
 -----------------------------
 Symbolic Z-matrix:
 Charge =  0 Multiplicity = 1

 SCF Done:  E(RM062X) =  -617.495713185     A.U. after   13 cycles
 SCF Done:  E(RM062X) =  -617.497395274     A.U. after   10 cycles
 SCF Done:  E(RM062X) =  -617.497534154     A.U. after   10 cycles
 SCF Done:  E(RM062X) =  -617.497558550     A.U. after    9 cycles
 SCF Done:  E(RM062X) =  -617.497562384     A.U. after    9 cycles
 SCF Done:  E(RM062X) =  -617.497565050     A.U. after    9 cycles
 SCF Done:  E(RM062X) =  -617.497565962     A.U. after    8 cycles
 Optimization completed.
    -- Stationary point found.
 Normal termination of Gaussian 16 at Sun Nov  4 21:54:53 2018.

 ----------------------------------------------------------------------
 #N Geom=AllCheck Guess=TCheck SCRF=Check GenChk RM062X/6-311++G(2d,2p)
  Freq
 ----------------------------------------------------------------------

 Structure from the checkpoint file:  "D_a1-4_2SO_PHI.inp_extract_23.chk"
 -----------------------------
 D_a1-4_2SO_PHI.inp_extract_23
 -----------------------------
 Charge =  0 Multiplicity = 1

                         Standard orientation:
 ---------------------------------------------------------------------
 Center     Atomic      Atomic             Coordinates (Angstroms)
 Number     Number       Type             X           Y           Z
 ---------------------------------------------------------------------
      1          6           0        0.917574    0.198685   -0.396400
      2          6           0        3.775098   -0.347878    0.119762
      3          8           0       -1.661939    1.323847   -0.126772
      4          6           0        1.793607   -0.887773   -1.017020
      5          6           0        1.736378    1.000597    0.621776
      6          8           0       -0.200737   -0.457776    0.198149
      7          6           0       -2.225110   -0.466801    1.412926
      8          6           0       -3.052304   -1.152585    0.326296
      9          6           0       -1.136013    0.399930    0.801704
     10          6           0       -3.556220   -0.106982   -0.667431
     11          6           0       -2.387372    0.709100   -1.192713
     12          6           0        3.185876    1.067629    0.146921
     13          8           0        2.770571   -1.338069   -0.097956
     14          1           0        0.557248    0.859081   -1.190039
     15          1           0        4.543257   -0.434622   -0.654311
     16          1           0        4.223064   -0.593083    1.081342
     17          1           0        1.177460   -1.744070   -1.282837
     18          1           0        2.277110   -0.513415   -1.924448
     19          1           0        1.691143    0.484776    1.583525
     20          1           0        1.323232    1.998540    0.757497
     21          1           0       -1.763892   -1.190353    2.084088
     22          1           0       -2.865649    0.183788    2.011021
     23          1           0       -2.433155   -1.883120   -0.197661
     24          1           0       -3.884930   -1.693646    0.774480
     25          1           0       -0.652838    1.016967    1.560727
     26          1           0       -4.074212   -0.575972   -1.504472
     27          1           0       -4.263083    0.563635   -0.172819
     28          1           0       -2.721057    1.526179   -1.828350
     29          1           0       -1.712216    0.072969   -1.772714
     30          1           0        3.219991    1.516611   -0.847362
     31          1           0        3.786289    1.698183    0.800046
 ---------------------------------------------------------------------

 SCF Done:  E(RM062X) =  -617.497565962     A.U. after    1 cycles

 The electronic state is 1-A.
 Alpha  occ. eigenvalues --  -19.63129 -19.62993 -19.62802 -10.63329 -10.58709
 Alpha  occ. eigenvalues --  -10.58054 -10.58053 -10.57801 -10.53459 -10.53367
 Alpha  occ. eigenvalues --  -10.53035 -10.52962 -10.52865  -1.20114  -1.16391
 Alpha  occ. eigenvalues --   -1.13204  -0.90877  -0.89581  -0.87331  -0.84287
 Alpha  occ. eigenvalues --   -0.75257  -0.74275  -0.72761  -0.70927  -0.64868
 Alpha  occ. eigenvalues --   -0.62506  -0.60114  -0.59110  -0.58325  -0.55551
 Alpha  occ. eigenvalues --   -0.54270  -0.53949  -0.52596  -0.50027  -0.49277
 Alpha  occ. eigenvalues --   -0.47918  -0.46324  -0.45756  -0.45402  -0.45098
 Alpha  occ. eigenvalues --   -0.43411  -0.42717  -0.42050  -0.41064  -0.39411
 Alpha  occ. eigenvalues --   -0.38478  -0.37386  -0.36193  -0.34360  -0.33343
 Alpha  occ. eigenvalues --   -0.32362
 Alpha virt. eigenvalues --   -0.00139   0.00779   0.00851   0.01092   0.02220
 Alpha virt. eigenvalues --    0.02418   0.02614   0.03452   0.03647   0.04430
 Alpha virt. eigenvalues --    0.04518   0.04608   0.05496   0.06033   0.06993

 Mulliken charges:
               1
     1  C   -0.108569
     2  C   -0.278621
     3  O   -0.281657
     4  C   -0.326821
     5  C   -0.179300
     6  O   -0.251888
     7  C   -0.391781
     8  C   -0.295078
     9  C   -0.075317
    10  C   -0.401506
    11  C   -0.124449
    12  C   -0.356515
    13  O   -0.324412
    14  H    0.216732
    15  H    0.175108
    16  H    0.175181
    17  H    0.205475
    18  H    0.186329
    19  H    0.214915
    20  H    0.189651
    21  H    0.182183
    22  H    0.190783
    23  H    0.170710
    24  H    0.181212
    25  H    0.268245
    26  H    0.171755
    27  H    0.163913
    28  H    0.206126
    29  H    0.140710
    30  H    0.191258
    31  H    0.165628
 Sum of Mulliken charges =  -0.00000

 Dipole moment (field-independent basis, Debye):
    X=             -0.1648    Y=              1.6132    Z=             -0.8506  Tot=              1.8311
 Quadrupole moment (field-independent basis, Debye-Ang):
   XX=            -71.6238   YY=            -87.0582   ZZ=            -75.0167
   XY=              8.8805   XZ=              0.0593   YZ=              1.1303

  Exact polarizability: 175.015   2.189 151.631   1.903   0.194 155.903
 Approx polarizability: 145.974   0.468 141.182   1.271  -0.225 142.969

                      1                      2                      3
                      A                      A                      A
 Frequencies --     28.7681                60.4174                83.8934
 Red. masses --      3.6856                 3.2039                 3.6491
 Frc consts  --      0.0018                 0.0069                 0.0151
 IR Inten    --      2.2583                 0.8109                 1.8251

                      4                      5                      6
                      A                      A                      A
 Frequencies --    130.9436               168.9665               210.2529
 Red. masses --      3.1305                 3.7159                 2.2863
 Frc consts  --      0.0316                 0.0625                 0.0595
 IR Inten    --      3.6304                 2.4504                 5.2406

                      7                      8                      9
                      A                      A                      A
 Frequencies --    244.6095               270.5225               309.5966
 Red. masses --      2.9638                 2.2962                 2.3579
 Frc consts  --      0.1045                 0.0990                 0.1332
 IR Inten    --     10.5617                 2.2966                 2.2344

                     10                     11                     12
                      A                      A                      A
 Frequencies --    367.5901               409.0107               429.3536
 Red. masses --      1.9384                 2.6635                 2.4575
 Frc consts  --      0.1543                 0.2625                 0.2669
 IR Inten    --      8.0667                12.1758                 4.3708

                     13                     14                     15
                      A                      A                      A
 Frequencies --    443.8907               467.3140               539.7392
 Red. masses --      3.2361                 4.1536                 2.3890
 Frc consts  --      0.3757                 0.5344                 0.4101
 IR Inten    --      4.7815                 4.0894                 4.7235

                     16                     17                     18
                      A                      A                      A
 Frequencies --    569.8332               593.4054               667.5176
 Red. masses --      3.8115                 2.6908                 2.3033
 Frc consts  --      0.7292                 0.5583                 0.6047
 IR Inten    --      9.3796                 4.5934                11.4548

                     19                     20                     21
                      A                      A                      A
 Frequencies --    720.6862               818.4656               833.8402
 Red. masses --      2.9274                 2.1075                 1.5452
 Frc consts  --      0.8958                 0.8318                 0.6330
 IR Inten    --      0.7871                 6.3769                 0.2359

                     22                     23                     24
                      A                      A                      A
 Frequencies --    840.6940               865.4519               894.3302
 Red. masses --      3.4497                 1.8583                 2.4001
 Frc consts  --      1.4365                 0.8201                 1.1310
 IR Inten    --      8.7102                 5.2464                17.9905

                     25                     26                     27
                      A                      A                      A
 Frequencies --    909.3982               918.3919               925.2916
 Red. masses --      2.4473                 2.4929                 1.9542
 Frc consts  --      1.1925                 1.2388                 0.9858
 IR Inten    --     17.1172                 8.2104                66.6022

                     28                     29                     30
                      A                      A                      A
 Frequencies --    929.9339               952.6354               985.4606
 Red. masses --      2.1367                 1.5976                 1.9210
 Frc consts  --      1.0887                 0.8542                 1.0992
 IR Inten    --      6.4330                 7.3377                35.7489

                     31                     32                     33
                      A                      A                      A
 Frequencies --   1034.1865              1049.4051              1062.1304
 Red. masses --      2.1384                 2.5111                 1.5843
 Frc consts  --      1.3475                 1.6293                 1.0531
 IR Inten    --     13.7788               166.1420                91.2218

                     34                     35                     36
                      A                      A                      A
 Frequencies --   1068.8089              1073.5256              1081.6530
 Red. masses --      1.8151                 2.2205                 2.3739
 Frc consts  --      1.2217                 1.5077                 1.6364
 IR Inten    --     12.1983                10.2301               201.5443

                     37                     38                     39
                      A                      A                      A
 Frequencies --   1131.6799              1147.5928              1158.3019
 Red. masses --      2.3054                 3.9791                 2.5793
 Frc consts  --      1.7396                 3.0875                 2.0389
 IR Inten    --     83.2228               102.5827                14.2546

                     40                     41                     42
                      A                      A                      A
 Frequencies --   1173.1424              1180.9824              1214.1747
 Red. masses --      2.4269                 3.7397                 1.4043
 Frc consts  --      1.9679                 3.0731                 1.2198
 IR Inten    --     37.6200               171.2302                20.6288

                     43                     44                     45
                      A                      A                      A
 Frequencies --   1219.3901              1233.2678              1252.1340
 Red. masses --      1.3703                 1.6196                 1.4698
 Frc consts  --      1.2004                 1.4513                 1.3578
 IR Inten    --     11.1042                56.4178                35.2613

                     46                     47                     48
                      A                      A                      A
 Frequencies --   1289.0382              1289.5646              1320.5104
 Red. masses --      1.2025                 1.2034                 1.1493
 Frc consts  --      1.1773                 1.1791                 1.1808
 IR Inten    --     32.4862                 4.4263                 9.1709

                     49                     50                     51
                      A                      A                      A
 Frequencies --   1328.0755              1342.8622              1359.6233
 Red. masses --      1.1765                 1.2842                 1.3507
 Frc consts  --      1.2226                 1.3644                 1.4711
 IR Inten    --     12.5000                 1.1293                 9.4730

                     52                     53                     54
                      A                      A                      A
 Frequencies --   1368.7082              1376.1930              1385.7228
 Red. masses --      1.3710                 1.4782                 1.3234
 Frc consts  --      1.5132                 1.6494                 1.4973
 IR Inten    --      4.2421                 9.6924                15.2116

                     55                     56                     57
                      A                      A                      A
 Frequencies --   1387.1287              1393.9322              1400.4184
 Red. masses --      1.4650                 1.7269                 1.2522
 Frc consts  --      1.6608                 1.9770                 1.4469
 IR Inten    --      3.1148                19.7427                 7.4869

                     58                     59                     60
                      A                      A                      A
 Frequencies --   1408.2719              1422.0457              1427.7801
 Red. masses --      1.3721                 1.3849                 1.4145
 Frc consts  --      1.6033                 1.6501                 1.6989
 IR Inten    --      6.9648                 9.0522                 6.1980

                     61                     62                     63
                      A                      A                      A
 Frequencies --   1433.6288              1475.4392              1481.9276
 Red. masses --      1.3567                 1.1040                 1.0865
 Frc consts  --      1.6429                 1.4160                 1.4058
 IR Inten    --     15.8488                 4.9796                 7.4283

                     64                     65                     66
                      A                      A                      A
 Frequencies --   1491.8016              1494.8582              1495.8267
 Red. masses --      1.0937                 1.1064                 1.0968
 Frc consts  --      1.4340                 1.4566                 1.4460
 IR Inten    --      0.6483                15.6375                11.0678

                     67                     68                     69
                      A                      A                      A
 Frequencies --   1503.2540              1509.1986              1517.7740
 Red. masses --      1.0785                 1.0934                 1.0987
 Frc consts  --      1.4359                 1.4673                 1.4913
 IR Inten    --      7.1353                 3.8191                 3.0827

                     70                     71                     72
                      A                      A                      A
 Frequencies --   3040.9437              3043.0267              3050.9145
 Red. masses --      1.0701                 1.0686                 1.0691
 Frc consts  --      5.8304                 5.8303                 5.8629
 IR Inten    --     76.9206                40.5879                62.2058

                     73                     74                     75
                      A                      A                      A
 Frequencies --   3061.8740              3062.8502              3070.6186
 Red. masses --      1.0772                 1.0675                 1.0673
 Frc consts  --      5.9500                 5.9000                 5.9292
 IR Inten    --     55.3580                41.1483                11.6016

                     76                     77                     78
                      A                      A                      A
 Frequencies --   3074.1326              3077.1076              3078.6662
 Red. masses --      1.0636                 1.0632                 1.0631
 Frc consts  --      5.9222                 5.9311                 5.9368
 IR Inten    --     33.2859                29.9871                45.6331

                     79                     80                     81
                      A                      A                      A
 Frequencies --   3094.1941              3113.7576              3116.4562
 Red. masses --      1.0842                 1.0979                 1.0959
 Frc consts  --      6.1160                 6.2715                 6.2709
 IR Inten    --     77.4547                37.0932                15.2025

                     82                     83                     84
                      A                      A                      A
 Frequencies --   3119.8591              3129.5605              3131.4097
 Red. masses --      1.1022                 1.1037                 1.1012
 Frc consts  --      6.3210                 6.3690                 6.3622
 IR Inten    --     59.7878                37.4488                34.4523

                     85                     86                     87
                      A                      A                      A
 Frequencies --   3133.6286              3134.0745              3139.5953
 Red. masses --      1.0997                 1.0982                 1.0970
 Frc consts  --      6.3624                 6.3555                 6.3707
 IR Inten    --     70.1470                48.9576                18.2696

 - Thermochemistry -
 -------------------
 Temperature   298.150 Kelvin.  Pressure   1.00000 Atm.
 Atom     1 has atomic number  6 and mass  12.00000

 Molecular mass:   186.12559 amu.
 Principal axes and moments of inertia in atomic units:
                           1         2         3
     Eigenvalues --   923.646574339.488574484.21994
           X            0.99987   0.01581   0.00113
           Y           -0.01582   0.99977   0.01457
           Z           -0.00090  -0.01459   0.99989
 This molecule is an asymmetric top.
 Rotational symmetry number  1.
 Warning -- assumption of classical behavior for rotation
           may cause significant error
 Rotational temperatures (Kelvin)      0.09377     0.01996     0.01932
 Rotational constants (GHZ):           1.95393     0.41589     0.40246
 Zero-point vibrational energy     737179.8 (Joules/Mol)
                                  176.19019 (Kcal/Mol)
 Warning -- explicit consideration of  17 degrees of freedom as
           vibrations may cause significant error
 Vibrational temperatures:     41.39    86.93   120.70   188.40   243.11
          (Kelvin)            302.51   351.94   389.22   445.44   528.88
                              588.48   617.74   638.66   672.36   776.56
                              819.86   853.78   960.41  1036.91  1177.59
                             1199.71  1209.57  1245.19  1286.74  1308.42
                             1321.36  1331.29  1337.97  1370.63  1417.86
                             1487.96  1509.86  1528.17  1537.78  1544.56
                             1556.26  1628.23  1651.13  1666.54  1687.89
                             1699.17  1746.93  1754.43  1774.40  1801.54
                             1854.64  1855.40  1899.92  1910.80  1932.08
                             1956.19  1969.27  1980.03  1993.75  1995.77
                             2005.56  2014.89  2026.19  2046.01  2054.26
                             2062.67  2122.83  2132.16  2146.37  2150.77
                             2152.16  2162.85  2171.40  2183.74  4375.24
                             4378.24  4389.59  4405.35  4406.76  4417.94
                             4422.99  4427.27  4429.51  4451.86  4480.00
                             4483.89  4488.78  4502.74  4505.40  4508.59
                             4509.23  4517.18

 Zero-point correction=                           0.280777 (Hartree/Particle)
 Thermal correction to Energy=                    0.292593
 Thermal correction to Enthalpy=                  0.293537
 Thermal correction to Gibbs Free Energy=         0.241950
 Sum of electronic and zero-point Energies=           -617.216789
 Sum of electronic and thermal Energies=              -617.204973
 Sum of electronic and thermal Enthalpies=            -617.204029
 Sum of electronic and thermal Free Energies=         -617.255616

                     E (Thermal)             CV                S
                      KCal/Mol        Cal/Mol-Kelvin    Cal/Mol-Kelvin
 Total                  183.605             46.621            108.574
 Electronic               0.000              0.000              0.000
 Translational            0.889              2.981             41.570
 Rotational               0.889              2.981             31.264
 Vibrational            181.827             40.659             35.740
 Vibration     1          0.593              1.984              5.913
 Vibration     2          0.597              1.973              4.444
 Vibration     3          0.601              1.960              3.798
 Vibration     4          0.612              1.922              2.932
 Vibration     5          0.625              1.881              2.447
 Vibration     6          0.642              1.825              2.041
 Vibration     7          0.660              1.772              1.769
 Vibration     8          0.674              1.727              1.593
 Vibration     9          0.699              1.655              1.364
 Vibration    10          0.740              1.539              1.090
 Vibration    11          0.773              1.451              0.930
 Vibration    12          0.791              1.406              0.861
 Vibration    13          0.803              1.374              0.814
 Vibration    14          0.825              1.323              0.745
 Vibration    15          0.895              1.162              0.566
 Vibration    16          0.926              1.097              0.505
 Vibration    17          0.951              1.046              0.461

                           ! Non-Optimized Parameters !
 Normal termination of Gaussian 16 at Sun Nov  4 22:54:43 2018.
