 Gaussian 16, Revision A.03,
 Gaussian 16:  ES64L-G16RevA.03 25-Dec-2016

 ----------------------------------------------------------------------
 #M062X/6-311++G(2d,2p) opt=ModRedundant freq=noraman SCRF=(Solvent=Wat
 er)
 ----------------------------------------------------------------------

 ----------------------------
 D_a1-4_2SO_PHI.inp_extract_2
 ----------------------------
 Symbolic Z-matrix:
 Charge =  0 Multiplicity = 1

 SCF Done:  E(RM062X) =  -617.492019183     A.U. after   12 cycles
 SCF Done:  E(RM062X) =  -617.493545765     A.U. after   10 cycles
 SCF Done:  E(RM062X) =  -617.493660018     A.U. after    9 cycles
 SCF Done:  E(RM062X) =  -617.493677435     A.U. after    9 cycles
 SCF Done:  E(RM062X) =  -617.493680643     A.U. after    8 cycles
 SCF Done:  E(RM062X) =  -617.493681391     A.U. after    8 cycles
 SCF Done:  E(RM062X) =  -617.493681508     A.U. after    7 cycles
 SCF Done:  E(RM062X) =  -617.493681536     A.U. after    6 cycles
 Optimization completed.
    -- Stationary point found.
 Normal termination of Gaussian 16 at Sun Nov  4 21:56:09 2018.

 ----------------------------------------------------------------------
 #N Geom=AllCheck Guess=TCheck SCRF=Check GenChk RM062X/6-311++G(2d,2p)
  Freq
 ----------------------------------------------------------------------

 Structure from the checkpoint file:  "D_a1-4_2SO_PHI.inp_extract_2.chk"
 ----------------------------
 D_a1-4_2SO_PHI.inp_extract_2
 ----------------------------
 Charge =  0 Multiplicity = 1

                         Standard orientation:
 ---------------------------------------------------------------------
 Center     Atomic      Atomic             Coordinates (Angstroms)
 Number     Number       Type             X           Y           Z
 ---------------------------------------------------------------------
      1          6           0        1.070187   -0.221329   -0.614032
      2          6           0        3.748110   -0.064348    0.625448
      3          8           0       -2.083287   -0.309823   -1.324650
      4          6           0        1.891387   -1.356949   -0.001368
      5          6           0        1.809443    1.105455   -0.415524
      6          8           0       -0.205288   -0.206577    0.019579
      7          6           0       -1.916598    1.428697    0.354346
      8          6           0       -2.729655    0.580411    1.330760
      9          6           0       -1.188855    0.547677   -0.650717
     10          6           0       -3.647901   -0.352839    0.543259
     11          6           0       -2.827025   -1.158671   -0.449223
     12          6           0        3.311697    0.856099   -0.522424
     13          8           0        2.678592   -0.893195    1.078530
     14          1           0        0.932891   -0.425972   -1.681190
     15          1           0        4.589863   -0.693474    0.321343
     16          1           0        4.048715    0.521838    1.492122
     17          1           0        1.222397   -2.121046    0.388056
     18          1           0        2.532903   -1.811814   -0.762618
     19          1           0        1.568833    1.478093    0.581930
     20          1           0        1.479196    1.849560   -1.138704
     21          1           0       -1.182525    2.046478    0.871173
     22          1           0       -2.583176    2.090620   -0.202229
     23          1           0       -2.053281   -0.012221    1.950437
     24          1           0       -3.304895    1.221070    1.998196
     25          1           0       -0.731249    1.149612   -1.436409
     26          1           0       -4.181800   -1.034263    1.206338
     27          1           0       -4.392469    0.233288   -0.000933
     28          1           0       -3.459347   -1.763478   -1.095306
     29          1           0       -2.138243   -1.821818    0.080653
     30          1           0        3.534530    0.397600   -1.487648
     31          1           0        3.872789    1.787461   -0.476031
 ---------------------------------------------------------------------

 SCF Done:  E(RM062X) =  -617.493681536     A.U. after    1 cycles

 The electronic state is 1-A.
 Alpha  occ. eigenvalues --  -19.62904 -19.62856 -19.62832 -10.63451 -10.59035
 Alpha  occ. eigenvalues --  -10.58130 -10.58082 -10.57647 -10.53460 -10.53314
 Alpha  occ. eigenvalues --  -10.52997 -10.52958 -10.52816  -1.19833  -1.16457
 Alpha  occ. eigenvalues --   -1.13296  -0.90658  -0.89711  -0.87190  -0.84382
 Alpha  occ. eigenvalues --   -0.75096  -0.73890  -0.72923  -0.71442  -0.64915
 Alpha  occ. eigenvalues --   -0.62776  -0.60049  -0.59179  -0.57631  -0.55645
 Alpha  occ. eigenvalues --   -0.55165  -0.53262  -0.52623  -0.50337  -0.49350
 Alpha  occ. eigenvalues --   -0.46939  -0.46621  -0.46191  -0.45143  -0.45006
 Alpha  occ. eigenvalues --   -0.43530  -0.42698  -0.42031  -0.41155  -0.39850
 Alpha  occ. eigenvalues --   -0.38261  -0.37235  -0.36585  -0.33891  -0.33456
 Alpha  occ. eigenvalues --   -0.32116
 Alpha virt. eigenvalues --   -0.00108   0.00765   0.00912   0.00993   0.02206
 Alpha virt. eigenvalues --    0.02411   0.02617   0.03384   0.03648   0.04378
 Alpha virt. eigenvalues --    0.04453   0.04640   0.05371   0.05938   0.06904

 Mulliken charges:
               1
     1  C   -0.124575
     2  C   -0.249217
     3  O   -0.291855
     4  C   -0.349325
     5  C   -0.134315
     6  O   -0.260699
     7  C   -0.262581
     8  C   -0.343019
     9  C   -0.109640
    10  C   -0.361059
    11  C   -0.153847
    12  C   -0.401600
    13  O   -0.312334
    14  H    0.237798
    15  H    0.172702
    16  H    0.177384
    17  H    0.211378
    18  H    0.176936
    19  H    0.202050
    20  H    0.156836
    21  H    0.156512
    22  H    0.181649
    23  H    0.181460
    24  H    0.179027
    25  H    0.286467
    26  H    0.167487
    27  H    0.165342
    28  H    0.206685
    29  H    0.146528
    30  H    0.189120
    31  H    0.158704
 Sum of Mulliken charges =  -0.00000

 Dipole moment (field-independent basis, Debye):
    X=              0.8733    Y=              1.6670    Z=             -1.1208  Tot=              2.1904
 Quadrupole moment (field-independent basis, Debye-Ang):
   XX=            -71.2074   YY=            -76.8138   ZZ=            -85.2672
   XY=              3.5011   XZ=             -9.0020   YZ=              1.5431

  Exact polarizability: 176.063   3.949 156.924  -0.692   0.537 150.298
 Approx polarizability: 147.419   2.423 141.068   0.153  -0.630 141.479

 ******    1 imaginary frequencies (negative Signs) ******

                      1                      2                      3
                      A                      A                      A
 Frequencies --    -39.3633                46.6003                61.5208
 Red. masses --      3.8665                 3.3731                 3.5894
 Frc consts  --      0.0035                 0.0043                 0.0080
 IR Inten    --      3.7481                 0.9165                 1.0946

                      4                      5                      6
                      A                      A                      A
 Frequencies --    105.6141               182.2265               207.7654
 Red. masses --      3.0524                 3.7887                 2.1206
 Frc consts  --      0.0201                 0.0741                 0.0539
 IR Inten    --      3.4760                 0.2755                 4.4997

                      7                      8                      9
                      A                      A                      A
 Frequencies --    233.4069               260.3153               310.1112
 Red. masses --      2.9828                 2.3687                 2.2651
 Frc consts  --      0.0957                 0.0946                 0.1283
 IR Inten    --      5.7507                 0.4164                 2.1687

                     10                     11                     12
                      A                      A                      A
 Frequencies --    371.6690               403.6453               425.4525
 Red. masses --      1.9631                 2.5118                 2.9415
 Frc consts  --      0.1598                 0.2411                 0.3137
 IR Inten    --     10.0907                 6.3685                11.6214

                     13                     14                     15
                      A                      A                      A
 Frequencies --    443.6573               473.0178               521.2306
 Red. masses --      3.4305                 3.4762                 2.8691
 Frc consts  --      0.3978                 0.4583                 0.4593
 IR Inten    --      1.7941                 3.8970                 3.1849

                     16                     17                     18
                      A                      A                      A
 Frequencies --    548.8069               597.7758               665.8455
 Red. masses --      3.0367                 2.9141                 2.3201
 Frc consts  --      0.5389                 0.6135                 0.6061
 IR Inten    --     11.3419                11.5916                10.4398

                     19                     20                     21
                      A                      A                      A
 Frequencies --    696.1295               821.0293               835.7172
 Red. masses --      2.6495                 2.0951                 1.5414
 Frc consts  --      0.7565                 0.8321                 0.6343
 IR Inten    --      2.3564                 8.0597                 1.3574

                     22                     23                     24
                      A                      A                      A
 Frequencies --    846.7747               868.9137               896.7837
 Red. masses --      3.1353                 1.9257                 2.2875
 Frc consts  --      1.3245                 0.8566                 1.0839
 IR Inten    --      6.5141                 5.0957                37.8679

                     25                     26                     27
                      A                      A                      A
 Frequencies --    899.1132               917.9412               924.1212
 Red. masses --      2.4568                 2.5573                 1.9678
 Frc consts  --      1.1702                 1.2696                 0.9901
 IR Inten    --     10.5886                 9.9342                63.9445

                     28                     29                     30
                      A                      A                      A
 Frequencies --    937.0500               951.2213               986.3529
 Red. masses --      2.1961                 1.5598                 1.8979
 Frc consts  --      1.1361                 0.8316                 1.0879
 IR Inten    --     10.8110                 1.5446                40.2601

                     31                     32                     33
                      A                      A                      A
 Frequencies --   1026.9574              1054.4589              1064.1840
 Red. masses --      2.2102                 2.2934                 1.5763
 Frc consts  --      1.3734                 1.5024                 1.0518
 IR Inten    --     47.2150                91.4350               147.2730

                     34                     35                     36
                      A                      A                      A
 Frequencies --   1067.1174              1073.3452              1089.3767
 Red. masses --      1.7933                 2.2974                 2.6272
 Frc consts  --      1.2032                 1.5595                 1.8369
 IR Inten    --     22.7982                14.0038               286.4519

                     37                     38                     39
                      A                      A                      A
 Frequencies --   1132.7909              1148.3269              1153.1651
 Red. masses --      2.1554                 4.0831                 2.3958
 Frc consts  --      1.6296                 3.1723                 1.8771
 IR Inten    --    147.8659                50.6302                19.8742

                     40                     41                     42
                      A                      A                      A
 Frequencies --   1165.1631              1181.4891              1211.0108
 Red. masses --      3.7686                 2.8253                 1.4028
 Frc consts  --      3.0144                 2.3237                 1.2121
 IR Inten    --    136.3898                21.2920                12.7972

                     43                     44                     45
                      A                      A                      A
 Frequencies --   1216.6722              1234.5787              1251.4247
 Red. masses --      1.3564                 1.6861                 1.4732
 Frc consts  --      1.1830                 1.5141                 1.3593
 IR Inten    --      2.0682                76.1956                49.4975

                     46                     47                     48
                      A                      A                      A
 Frequencies --   1286.0858              1288.2570              1318.0271
 Red. masses --      1.2069                 1.1979                 1.1477
 Frc consts  --      1.1761                 1.1714                 1.1747
 IR Inten    --     27.7533                 6.1762                 6.1591

                     49                     50                     51
                      A                      A                      A
 Frequencies --   1329.0676              1340.4002              1355.8424
 Red. masses --      1.1813                 1.2635                 1.3328
 Frc consts  --      1.2294                 1.3375                 1.4435
 IR Inten    --     10.7511                 3.7011                11.7955

                     52                     53                     54
                      A                      A                      A
 Frequencies --   1371.2966              1373.3535              1383.1842
 Red. masses --      1.5506                 1.3354                 1.3383
 Frc consts  --      1.7180                 1.4840                 1.5086
 IR Inten    --     18.5876                 4.7285                26.5017

                     55                     56                     57
                      A                      A                      A
 Frequencies --   1385.9871              1390.6391              1397.3608
 Red. masses --      1.4512                 1.7217                 1.3583
 Frc consts  --      1.6424                 1.9618                 1.5627
 IR Inten    --      4.4227                18.8110                 0.4598

                     58                     59                     60
                      A                      A                      A
 Frequencies --   1406.2532              1422.2187              1425.3288
 Red. masses --      1.3194                 1.3712                 1.3981
 Frc consts  --      1.5373                 1.6341                 1.6735
 IR Inten    --     20.5336                23.1421                 0.8656

                     61                     62                     63
                      A                      A                      A
 Frequencies --   1443.4816              1476.4116              1482.5571
 Red. masses --      1.2821                 1.1068                 1.0860
 Frc consts  --      1.5740                 1.4215                 1.4064
 IR Inten    --      6.2786                 5.2226                 8.6869

                     64                     65                     66
                      A                      A                      A
 Frequencies --   1491.2963              1494.8373              1495.8440
 Red. masses --      1.0965                 1.1064                 1.0944
 Frc consts  --      1.4368                 1.4566                 1.4427
 IR Inten    --      1.4741                14.3391                10.1668

                     67                     68                     69
                      A                      A                      A
 Frequencies --   1503.0325              1510.8552              1517.0745
 Red. masses --      1.0774                 1.0943                 1.0988
 Frc consts  --      1.4341                 1.4718                 1.4900
 IR Inten    --      7.1402                 4.3512                 3.7823

                     70                     71                     72
                      A                      A                      A
 Frequencies --   3032.9195              3040.7960              3048.8540
 Red. masses --      1.0784                 1.0687                 1.0749
 Frc consts  --      5.8447                 5.8219                 5.8868
 IR Inten    --     16.2846                87.8369                91.4098

                     73                     74                     75
                      A                      A                      A
 Frequencies --   3057.3304              3063.8096              3069.5581
 Red. masses --      1.0685                 1.0628                 1.0637
 Frc consts  --      5.8847                 5.8780                 5.9048
 IR Inten    --     37.4401                44.9714                28.2343

                     76                     77                     78
                      A                      A                      A
 Frequencies --   3073.5822              3073.7667              3079.5304
 Red. masses --      1.0662                 1.0629                 1.0613
 Frc consts  --      5.9346                 5.9167                 5.9299
 IR Inten    --     22.7715                14.6135                63.9903

                     79                     80                     81
                      A                      A                      A
 Frequencies --   3098.0904              3113.1860              3117.9107
 Red. masses --      1.0868                 1.0977                 1.0955
 Frc consts  --      6.1457                 6.2682                 6.2748
 IR Inten    --     51.3018                38.0356                16.4343

                     82                     83                     84
                      A                      A                      A
 Frequencies --   3118.1335              3125.7273              3129.2847
 Red. masses --      1.1016                 1.1040                 1.1029
 Frc consts  --      6.3103                 6.3549                 6.3635
 IR Inten    --     58.3269                43.2626                42.8665

                     85                     86                     87
                      A                      A                      A
 Frequencies --   3134.8990              3135.2959              3143.3641
 Red. masses --      1.0997                 1.0996                 1.0964
 Frc consts  --      6.3677                 6.3687                 6.3826
 IR Inten    --     51.2058                61.5959                19.8797

 - Thermochemistry -
 -------------------
 Temperature   298.150 Kelvin.  Pressure   1.00000 Atm.
 Atom     1 has atomic number  6 and mass  12.00000

 Molecular mass:   186.12559 amu.
 Principal axes and moments of inertia in atomic units:
                           1         2         3
     Eigenvalues --   949.966904507.207794612.98066
           X            0.99988   0.00618  -0.01404
           Y           -0.00535   0.99829   0.05818
           Z            0.01437  -0.05810   0.99821
 This molecule is an asymmetric top.
 Rotational symmetry number  1.
 Warning -- assumption of classical behavior for rotation
           may cause significant error
 Rotational temperatures (Kelvin)      0.09118     0.01922     0.01878
 Rotational constants (GHZ):           1.89979     0.40041     0.39123
    1 imaginary frequencies ignored.
 Zero-point vibrational energy     736030.0 (Joules/Mol)
                                  175.91538 (Kcal/Mol)
 Warning -- explicit consideration of  16 degrees of freedom as
           vibrations may cause significant error
 Vibrational temperatures:     67.05    88.51   151.96   262.18   298.93
          (Kelvin)            335.82   374.54   446.18   534.75   580.76
                              612.13   638.32   680.57   749.93   789.61
                              860.07   958.00  1001.58  1181.28  1202.41
                             1218.32  1250.17  1290.27  1293.62  1320.71
                             1329.60  1348.21  1368.60  1419.14  1477.56
                             1517.13  1531.12  1535.34  1544.30  1567.37
                             1629.83  1652.19  1659.15  1676.41  1699.90
                             1742.37  1750.52  1776.28  1800.52  1850.39
                             1853.51  1896.35  1912.23  1928.54  1950.75
                             1972.99  1975.95  1990.09  1994.13  2000.82
                             2010.49  2023.28  2046.26  2050.73  2076.85
                             2124.23  2133.07  2145.64  2150.74  2152.19
                             2162.53  2173.78  2182.73  4363.69  4375.03
                             4386.62  4398.82  4408.14  4416.41  4422.20
                             4422.46  4430.76  4457.46  4479.18  4485.98
                             4486.30  4497.22  4502.34  4510.42  4510.99
                             4522.60

 Zero-point correction=                           0.280339 (Hartree/Particle)
 Thermal correction to Energy=                    0.291439
 Thermal correction to Enthalpy=                  0.292383
 Thermal correction to Gibbs Free Energy=         0.242768
 Sum of electronic and zero-point Energies=           -617.213343
 Sum of electronic and thermal Energies=              -617.202243
 Sum of electronic and thermal Enthalpies=            -617.201299
 Sum of electronic and thermal Free Energies=         -617.250914

                     E (Thermal)             CV                S
                      KCal/Mol        Cal/Mol-Kelvin    Cal/Mol-Kelvin
 Total                  182.881             44.822            104.424
 Electronic               0.000              0.000              0.000
 Translational            0.889              2.981             41.570
 Rotational               0.889              2.981             31.358
 Vibrational            181.103             38.860             31.496
 Vibration     1          0.595              1.979              4.957
 Vibration     2          0.597              1.973              4.408
 Vibration     3          0.605              1.945              3.348
 Vibration     4          0.630              1.864              2.305
 Vibration     5          0.641              1.829              2.063
 Vibration     6          0.654              1.790              1.853
 Vibration     7          0.668              1.745              1.660
 Vibration     8          0.699              1.654              1.362
 Vibration     9          0.743              1.530              1.073
 Vibration    10          0.769              1.462              0.949
 Vibration    11          0.787              1.415              0.874
 Vibration    12          0.803              1.375              0.815
 Vibration    13          0.830              1.310              0.729
 Vibration    14          0.876              1.203              0.607
 Vibration    15          0.904              1.142              0.547
 Vibration    16          0.956              1.037              0.453

 Optimization completed.
    -- Stationary point found.
 Normal termination of Gaussian 16 at Sun Nov  4 22:49:41 2018.
