 Gaussian 16, Revision A.03,
 Gaussian 16:  ES64L-G16RevA.03 25-Dec-2016

 ----------------------------------------------------------------------
 #M062X/6-311++G(2d,2p) opt=ModRedundant freq=noraman SCRF=(Solvent=Wat
 er)
 ----------------------------------------------------------------------

 -----------------------------
 D_a1-4_2SO_PHI.inp_extract_22
 -----------------------------
 Symbolic Z-matrix:
 Charge =  0 Multiplicity = 1

 SCF Done:  E(RM062X) =  -617.494529509     A.U. after   12 cycles
 SCF Done:  E(RM062X) =  -617.496341921     A.U. after   11 cycles
 SCF Done:  E(RM062X) =  -617.496562491     A.U. after   10 cycles
 SCF Done:  E(RM062X) =  -617.496618959     A.U. after   10 cycles
 SCF Done:  E(RM062X) =  -617.496624475     A.U. after    9 cycles
 SCF Done:  E(RM062X) =  -617.496625807     A.U. after    8 cycles
 SCF Done:  E(RM062X) =  -617.496626349     A.U. after    8 cycles
 SCF Done:  E(RM062X) =  -617.496626527     A.U. after    7 cycles
 Optimization completed.
    -- Stationary point found.
 Normal termination of Gaussian 16 at Sun Nov  4 21:58:24 2018.

 ----------------------------------------------------------------------
 #N Geom=AllCheck Guess=TCheck SCRF=Check GenChk RM062X/6-311++G(2d,2p)
  Freq
 ----------------------------------------------------------------------

 Structure from the checkpoint file:  "D_a1-4_2SO_PHI.inp_extract_22.chk"
 -----------------------------
 D_a1-4_2SO_PHI.inp_extract_22
 -----------------------------
 Charge =  0 Multiplicity = 1

                         Standard orientation:
 ---------------------------------------------------------------------
 Center     Atomic      Atomic             Coordinates (Angstroms)
 Number     Number       Type             X           Y           Z
 ---------------------------------------------------------------------
      1          6           0        0.874412    0.125523   -0.351233
      2          6           0        3.778407   -0.235487    0.051579
      3          8           0       -1.536308    1.288415    0.176252
      4          6           0        1.799509   -0.881302   -1.033090
      5          6           0        1.668237    0.935274    0.679276
      6          8           0       -0.182936   -0.616977    0.251419
      7          6           0       -2.327947   -0.755835    1.247089
      8          6           0       -3.120182   -1.113862   -0.007692
      9          6           0       -1.157273    0.154798    0.920067
     10          6           0       -3.500319    0.168187   -0.744975
     11          6           0       -2.248883    0.981249   -1.025395
     12          6           0        3.090962    1.131760    0.162496
     13          8           0        2.839127   -1.288024   -0.163726
     14          1           0        0.462348    0.795273   -1.108616
     15          1           0        4.514788   -0.236270   -0.757575
     16          1           0        4.286080   -0.484060    0.982142
     17          1           0        1.235031   -1.770809   -1.304612
     18          1           0        2.223415   -0.448015   -1.944332
     19          1           0        1.696519    0.369738    1.613323
     20          1           0        1.180646    1.887910    0.879092
     21          1           0       -1.946327   -1.643028    1.751068
     22          1           0       -2.971056   -0.223353    1.950130
     23          1           0       -2.510218   -1.741137   -0.660818
     24          1           0       -4.007014   -1.687282    0.259543
     25          1           0       -0.725399    0.571266    1.833386
     26          1           0       -4.002831   -0.051178   -1.687384
     27          1           0       -4.184133    0.761374   -0.133118
     28          1           0       -2.483156    1.942145   -1.477851
     29          1           0       -1.594885    0.428681   -1.707275
     30          1           0        3.057542    1.624092   -0.811206
     31          1           0        3.668041    1.775508    0.823816
 ---------------------------------------------------------------------

 SCF Done:  E(RM062X) =  -617.496626527     A.U. after    1 cycles

 The electronic state is 1-A.
 Alpha  occ. eigenvalues --  -19.63274 -19.63010 -19.62762 -10.63413 -10.58604
 Alpha  occ. eigenvalues --  -10.58019 -10.58008 -10.57989 -10.53383 -10.53168
 Alpha  occ. eigenvalues --  -10.53115 -10.53025 -10.52953  -1.20083  -1.16361
 Alpha  occ. eigenvalues --   -1.13202  -0.90954  -0.89621  -0.87366  -0.84272
 Alpha  occ. eigenvalues --   -0.75128  -0.74404  -0.72919  -0.70795  -0.64868
 Alpha  occ. eigenvalues --   -0.62635  -0.59901  -0.59158  -0.58311  -0.55686
 Alpha  occ. eigenvalues --   -0.54088  -0.53977  -0.52599  -0.50074  -0.49105
 Alpha  occ. eigenvalues --   -0.48178  -0.46531  -0.45689  -0.45329  -0.44995
 Alpha  occ. eigenvalues --   -0.43699  -0.42656  -0.41909  -0.40852  -0.39386
 Alpha  occ. eigenvalues --   -0.38647  -0.37441  -0.36198  -0.34414  -0.33275
 Alpha  occ. eigenvalues --   -0.32304
 Alpha virt. eigenvalues --   -0.00152   0.00784   0.00841   0.01107   0.02227
 Alpha virt. eigenvalues --    0.02428   0.02624   0.03525   0.03552   0.04441
 Alpha virt. eigenvalues --    0.04535   0.04661   0.05663   0.05962   0.06913

 Mulliken charges:
               1
     1  C   -0.071865
     2  C   -0.277431
     3  O   -0.261462
     4  C   -0.388918
     5  C   -0.124716
     6  O   -0.274816
     7  C   -0.465703
     8  C   -0.272369
     9  C   -0.024430
    10  C   -0.420069
    11  C   -0.101930
    12  C   -0.353076
    13  O   -0.326200
    14  H    0.204950
    15  H    0.173856
    16  H    0.175022
    17  H    0.205858
    18  H    0.188656
    19  H    0.213628
    20  H    0.189072
    21  H    0.183952
    22  H    0.194677
    23  H    0.168364
    24  H    0.183951
    25  H    0.247888
    26  H    0.174749
    27  H    0.165641
    28  H    0.205230
    29  H    0.133627
    30  H    0.186888
    31  H    0.166975
 Sum of Mulliken charges =  -0.00000

 Dipole moment (field-independent basis, Debye):
    X=             -0.7930    Y=              1.8526    Z=             -1.1950  Tot=              2.3429
 Quadrupole moment (field-independent basis, Debye-Ang):
   XX=            -72.0978   YY=            -86.6260   ZZ=            -75.2940
   XY=              8.4383   XZ=              0.6047   YZ=             -0.4982

  Exact polarizability: 174.569   2.227 152.701   1.351  -0.653 155.391
 Approx polarizability: 145.563   0.448 141.640   0.869  -0.784 143.286

                      1                      2                      3
                      A                      A                      A
 Frequencies --     47.9479                64.2521                97.2715
 Red. masses --      3.7217                 3.0798                 3.4307
 Frc consts  --      0.0050                 0.0075                 0.0191
 IR Inten    --      1.6888                 0.8484                 2.4174

                      4                      5                      6
                      A                      A                      A
 Frequencies --    143.4733               162.6198               208.6127
 Red. masses --      3.2160                 3.5554                 2.4019
 Frc consts  --      0.0390                 0.0554                 0.0616
 IR Inten    --      1.9331                 4.3204                 6.6882

                      7                      8                      9
                      A                      A                      A
 Frequencies --    239.0892               271.3491               311.8251
 Red. masses --      3.1041                 2.2919                 2.4194
 Frc consts  --      0.1045                 0.0994                 0.1386
 IR Inten    --     11.1490                 1.8036                 2.5787

                     10                     11                     12
                      A                      A                      A
 Frequencies --    362.1632               403.3234               430.6666
 Red. masses --      1.8737                 2.6528                 2.4601
 Frc consts  --      0.1448                 0.2543                 0.2688
 IR Inten    --      5.0825                14.2934                 4.4519

                     13                     14                     15
                      A                      A                      A
 Frequencies --    444.7197               462.9364               538.2355
 Red. masses --      3.2469                 4.0360                 2.4659
 Frc consts  --      0.3784                 0.5096                 0.4209
 IR Inten    --      4.3060                 2.9095                 4.3287

                     16                     17                     18
                      A                      A                      A
 Frequencies --    577.0314               593.3616               666.2029
 Red. masses --      3.7679                 2.7186                 2.2845
 Frc consts  --      0.7392                 0.5639                 0.5974
 IR Inten    --     10.4364                 3.3294                11.3345

                     19                     20                     21
                      A                      A                      A
 Frequencies --    725.4992               818.0538               830.8334
 Red. masses --      3.0413                 2.0678                 1.7491
 Frc consts  --      0.9432                 0.8153                 0.7114
 IR Inten    --      1.0673                 4.7348                 0.5617

                     22                     23                     24
                      A                      A                      A
 Frequencies --    839.2827               864.9672               897.6131
 Red. masses --      2.8477                 1.8481                 2.3846
 Frc consts  --      1.1818                 0.8147                 1.1320
 IR Inten    --      7.9040                 4.4914                11.0634

                     25                     26                     27
                      A                      A                      A
 Frequencies --    910.8491               918.0612               925.5988
 Red. masses --      2.4867                 2.5119                 1.9438
 Frc consts  --      1.2155                 1.2474                 0.9812
 IR Inten    --     20.7378                 6.6117                68.5991

                     28                     29                     30
                      A                      A                      A
 Frequencies --    931.7672               952.2862               983.0112
 Red. masses --      2.1192                 1.6003                 1.9311
 Frc consts  --      1.0840                 0.8550                 1.0994
 IR Inten    --      8.3217                 9.0175                38.1205

                     31                     32                     33
                      A                      A                      A
 Frequencies --   1033.3709              1049.0132              1063.1508
 Red. masses --      2.2014                 2.4976                 1.6378
 Frc consts  --      1.3850                 1.6194                 1.0907
 IR Inten    --     10.5614               167.5199               110.5168

                     34                     35                     36
                      A                      A                      A
 Frequencies --   1067.3148              1074.2061              1082.2806
 Red. masses --      1.7223                 2.2323                 2.2482
 Frc consts  --      1.1559                 1.5177                 1.5516
 IR Inten    --      1.2434                24.6545               154.9382

                     37                     38                     39
                      A                      A                      A
 Frequencies --   1134.0323              1147.0089              1159.4203
 Red. masses --      2.3335                 4.0326                 2.6053
 Frc consts  --      1.7681                 3.1259                 2.0635
 IR Inten    --     77.6021               103.0096                13.7623

                     40                     41                     42
                      A                      A                      A
 Frequencies --   1168.7858              1185.3459              1213.9989
 Red. masses --      2.3625                 3.3708                 1.4195
 Frc consts  --      1.9015                 2.7905                 1.2326
 IR Inten    --     47.5646               167.5090                23.5287

                     43                     44                     45
                      A                      A                      A
 Frequencies --   1218.4645              1235.3106              1251.0755
 Red. masses --      1.3983                 1.6596                 1.4667
 Frc consts  --      1.2231                 1.4921                 1.3525
 IR Inten    --      7.1695                66.5512                33.2297

                     46                     47                     48
                      A                      A                      A
 Frequencies --   1289.4227              1290.2597              1323.1520
 Red. masses --      1.1918                 1.2197                 1.1501
 Frc consts  --      1.1674                 1.1964                 1.1863
 IR Inten    --     19.6930                19.0567                10.6423

                     49                     50                     51
                      A                      A                      A
 Frequencies --   1330.2265              1346.2495              1359.8039
 Red. masses --      1.1857                 1.3120                 1.3833
 Frc consts  --      1.2361                 1.4010                 1.5071
 IR Inten    --     14.1070                 2.7261                 6.7470

                     52                     53                     54
                      A                      A                      A
 Frequencies --   1367.0560              1376.1112              1387.6802
 Red. masses --      1.4453                 1.4423                 1.4809
 Frc consts  --      1.5914                 1.6092                 1.6801
 IR Inten    --      0.4154                 4.7406                 1.3563

                     55                     56                     57
                      A                      A                      A
 Frequencies --   1388.9271              1395.6517              1402.8332
 Red. masses --      1.2465                 1.7562                 1.2776
 Frc consts  --      1.4167                 2.0155                 1.4814
 IR Inten    --     18.3861                24.1987                 8.7648

                     58                     59                     60
                      A                      A                      A
 Frequencies --   1415.5164              1423.2067              1430.2299
 Red. masses --      1.3648                 1.3246                 1.3756
 Frc consts  --      1.6112                 1.5808                 1.6579
 IR Inten    --      9.3344                 2.7168                 7.6112

                     61                     62                     63
                      A                      A                      A
 Frequencies --   1441.3061              1474.8783              1482.1663
 Red. masses --      1.3498                 1.1033                 1.0873
 Frc consts  --      1.6521                 1.4140                 1.4073
 IR Inten    --     15.4282                 5.1237                 8.0236

                     64                     65                     66
                      A                      A                      A
 Frequencies --   1491.6422              1495.0846              1496.1620
 Red. masses --      1.0927                 1.1099                 1.0973
 Frc consts  --      1.4325                 1.4617                 1.4472
 IR Inten    --      0.5761                17.1866                10.0092

                     67                     68                     69
                      A                      A                      A
 Frequencies --   1504.7088              1507.9800              1518.3718
 Red. masses --      1.0779                 1.0936                 1.0985
 Frc consts  --      1.4379                 1.4653                 1.4922
 IR Inten    --      6.7725                 3.1815                 3.5585

                     70                     71                     72
                      A                      A                      A
 Frequencies --   3040.6284              3043.8116              3046.7672
 Red. masses --      1.0686                 1.0687                 1.0691
 Frc consts  --      5.8207                 5.8337                 5.8472
 IR Inten    --    104.6385                39.3820                43.8359

                     73                     74                     75
                      A                      A                      A
 Frequencies --   3063.9904              3066.7884              3070.5076
 Red. masses --      1.0642                 1.0769                 1.0694
 Frc consts  --      5.8862                 5.9677                 5.9401
 IR Inten    --     36.8060                24.9110                23.9575

                     76                     77                     78
                      A                      A                      A
 Frequencies --   3072.4179              3078.1962              3082.1110
 Red. masses --      1.0638                 1.0656                 1.0687
 Frc consts  --      5.9165                 5.9488                 5.9815
 IR Inten    --     20.1954                25.5598               132.1949

                     79                     80                     81
                      A                      A                      A
 Frequencies --   3083.4864              3115.1883              3115.2985
 Red. masses --      1.0793                 1.0979                 1.0960
 Frc consts  --      6.0458                 6.2774                 6.2672
 IR Inten    --     35.9511                36.5936                15.9758

                     82                     83                     84
                      A                      A                      A
 Frequencies --   3120.1305              3130.4441              3132.4399
 Red. masses --      1.1022                 1.1031                 1.1010
 Frc consts  --      6.3219                 6.3693                 6.3653
 IR Inten    --     61.1327                34.1455                40.4955

                     85                     86                     87
                      A                      A                      A
 Frequencies --   3133.4351              3136.9574              3140.4544
 Red. masses --      1.0997                 1.0971                 1.0966
 Frc consts  --      6.3615                 6.3608                 6.3721
 IR Inten    --     67.1635                42.4841                18.8974

 - Thermochemistry -
 -------------------
 Temperature   298.150 Kelvin.  Pressure   1.00000 Atm.
 Atom     1 has atomic number  6 and mass  12.00000

 Molecular mass:   186.12559 amu.
 Principal axes and moments of inertia in atomic units:
                           1         2         3
     Eigenvalues --   922.980674263.760854457.60472
           X            0.99988   0.01533   0.00227
           Y           -0.01530   0.99979  -0.01358
           Z           -0.00248   0.01354   0.99991
 This molecule is an asymmetric top.
 Rotational symmetry number  1.
 Warning -- assumption of classical behavior for rotation
           may cause significant error
 Rotational temperatures (Kelvin)      0.09384     0.02031     0.01943
 Rotational constants (GHZ):           1.95534     0.42327     0.40487
 Zero-point vibrational energy     737601.6 (Joules/Mol)
                                  176.29102 (Kcal/Mol)
 Warning -- explicit consideration of  17 degrees of freedom as
           vibrations may cause significant error
 Vibrational temperatures:     68.99    92.44   139.95   206.43   233.97
          (Kelvin)            300.15   344.00   390.41   448.65   521.07
                              580.29   619.63   639.85   666.06   774.40
                              830.22   853.71   958.52  1043.83  1177.00
                             1195.38  1207.54  1244.49  1291.47  1310.51
                             1320.89  1331.73  1340.61  1370.13  1414.33
                             1486.79  1509.30  1529.64  1535.63  1545.54
                             1557.16  1631.62  1650.29  1668.15  1681.62
                             1705.45  1746.67  1753.10  1777.34  1800.02
                             1855.19  1856.40  1903.72  1913.90  1936.95
                             1956.45  1966.89  1979.92  1996.56  1998.36
                             2008.03  2018.36  2036.61  2047.68  2057.78
                             2073.72  2122.02  2132.51  2146.14  2151.09
                             2152.64  2164.94  2169.65  2184.60  4374.79
                             4379.37  4383.62  4408.40  4412.42  4417.78
                             4420.52  4428.84  4434.47  4436.45  4482.06
                             4482.22  4489.17  4504.01  4506.88  4508.31
                             4513.38  4518.41

 Zero-point correction=                           0.280938 (Hartree/Particle)
 Thermal correction to Energy=                    0.292681
 Thermal correction to Enthalpy=                  0.293625
 Thermal correction to Gibbs Free Energy=         0.242741
 Sum of electronic and zero-point Energies=           -617.215689
 Sum of electronic and thermal Energies=              -617.203945
 Sum of electronic and thermal Enthalpies=            -617.203001
 Sum of electronic and thermal Free Energies=         -617.253885

                     E (Thermal)             CV                S
                      KCal/Mol        Cal/Mol-Kelvin    Cal/Mol-Kelvin
 Total                  183.660             46.603            107.095
 Electronic               0.000              0.000              0.000
 Translational            0.889              2.981             41.570
 Rotational               0.889              2.981             31.240
 Vibrational            181.883             40.641             34.285
 Vibration     1          0.595              1.978              4.900
 Vibration     2          0.597              1.971              4.322
 Vibration     3          0.603              1.951              3.508
 Vibration     4          0.616              1.910              2.757
 Vibration     5          0.623              1.888              2.519
 Vibration     6          0.642              1.828              2.056
 Vibration     7          0.657              1.781              1.810
 Vibration     8          0.675              1.726              1.588
 Vibration     9          0.700              1.651              1.353
 Vibration    10          0.736              1.550              1.113
 Vibration    11          0.769              1.463              0.951
 Vibration    12          0.792              1.403              0.856
 Vibration    13          0.804              1.373              0.812
 Vibration    14          0.821              1.332              0.758
 Vibration    15          0.893              1.165              0.569
 Vibration    16          0.933              1.081              0.491
 Vibration    17          0.951              1.046              0.461

 Optimization completed.
    -- Stationary point found.
 Normal termination of Gaussian 16 at Sun Nov  4 22:53:21 2018.
