 Gaussian 16, Revision A.03,
 Gaussian 16:  ES64L-G16RevA.03 25-Dec-2016

 ----------------------------------------------------------------------
 #M062X/6-311++G(2d,2p) opt=ModRedundant freq=noraman SCRF=(Solvent=Wat
 er)
 ----------------------------------------------------------------------

 ----------------------------
 D_a1-4_2SO_PHI.inp_extract_0
 ----------------------------
 Symbolic Z-matrix:
 Charge =  0 Multiplicity = 1

 SCF Done:  E(RM062X) =  -617.494842651     A.U. after   12 cycles
 SCF Done:  E(RM062X) =  -617.496439575     A.U. after   10 cycles
 SCF Done:  E(RM062X) =  -617.496560697     A.U. after    9 cycles
 SCF Done:  E(RM062X) =  -617.496580127     A.U. after    9 cycles
 SCF Done:  E(RM062X) =  -617.496584886     A.U. after    9 cycles
 SCF Done:  E(RM062X) =  -617.496587200     A.U. after    9 cycles
 SCF Done:  E(RM062X) =  -617.496587936     A.U. after    8 cycles
 SCF Done:  E(RM062X) =  -617.496587509     A.U. after    8 cycles
 SCF Done:  E(RM062X) =  -617.496587096     A.U. after    8 cycles
 Optimization completed.
    -- Stationary point found.
 Normal termination of Gaussian 16 at Sun Nov  4 22:07:35 2018.

 ----------------------------------------------------------------------
 #N Geom=AllCheck Guess=TCheck SCRF=Check GenChk RM062X/6-311++G(2d,2p)
  Freq
 ----------------------------------------------------------------------

 Structure from the checkpoint file:  "D_a1-4_2SO_PHI.inp_extract_0.chk"
 ----------------------------
 D_a1-4_2SO_PHI.inp_extract_0
 ----------------------------
 Charge =  0 Multiplicity = 1

                         Standard orientation:
 ---------------------------------------------------------------------
 Center     Atomic      Atomic             Coordinates (Angstroms)
 Number     Number       Type             X           Y           Z
 ---------------------------------------------------------------------
      1          6           0        0.979603    0.041353   -0.510016
      2          6           0        3.766749   -0.335401    0.403890
      3          8           0       -1.823120    0.719423   -1.145267
      4          6           0        1.771915   -1.261170   -0.417868
      5          6           0        1.846855    1.205852   -0.013397
      6          8           0       -0.195428   -0.119752    0.282185
      7          6           0       -2.137565    0.813169    1.257495
      8          6           0       -2.949648   -0.480465    1.211640
      9          6           0       -1.161857    0.881022    0.093224
     10          6           0       -3.602394   -0.621813   -0.162523
     11          6           0       -2.546059   -0.507634   -1.248820
     12          6           0        3.308997    0.920047   -0.348307
     13          8           0        2.681689   -1.224536    0.665055
     14          1           0        0.682819    0.199728   -1.550982
     15          1           0        4.541483   -0.864770   -0.158742
     16          1           0        4.168315   -0.070293    1.380598
     17          1           0        1.089341   -2.089931   -0.242117
     18          1           0        2.308976   -1.446326   -1.353184
     19          1           0        1.724914    1.279653    1.069238
     20          1           0        1.528822    2.150194   -0.450707
     21          1           0       -1.579938    0.905791    2.188694
     22          1           0       -2.806513    1.672091    1.178974
     23          1           0       -2.290840   -1.332268    1.391385
     24          1           0       -3.701771   -0.479570    1.999863
     25          1           0       -0.690677    1.862950    0.031700
     26          1           0       -4.117014   -1.578374   -0.258658
     27          1           0       -4.343087    0.169304   -0.302745
     28          1           0       -2.991090   -0.501852   -2.241350
     29          1           0       -1.846869   -1.346339   -1.188008
     30          1           0        3.411935    0.780011   -1.425812
     31          1           0        3.946489    1.759151   -0.075839
 ---------------------------------------------------------------------

 SCF Done:  E(RM062X) =  -617.496587096     A.U. after    1 cycles

 The electronic state is 1-A.
 Alpha  occ. eigenvalues --  -19.63040 -19.62823 -19.62803 -10.63331 -10.58756
 Alpha  occ. eigenvalues --  -10.58065 -10.58047 -10.57667 -10.53440 -10.53327
 Alpha  occ. eigenvalues --  -10.53002 -10.52947 -10.52817  -1.19985  -1.16393
 Alpha  occ. eigenvalues --   -1.13184  -0.90787  -0.89572  -0.87233  -0.84280
 Alpha  occ. eigenvalues --   -0.75129  -0.74143  -0.72747  -0.71123  -0.64848
 Alpha  occ. eigenvalues --   -0.62461  -0.60072  -0.59162  -0.58107  -0.55558
 Alpha  occ. eigenvalues --   -0.54593  -0.53604  -0.52602  -0.50104  -0.49386
 Alpha  occ. eigenvalues --   -0.47344  -0.46268  -0.46039  -0.45389  -0.45012
 Alpha  occ. eigenvalues --   -0.43172  -0.42773  -0.42160  -0.41120  -0.39536
 Alpha  occ. eigenvalues --   -0.38348  -0.37252  -0.36147  -0.34425  -0.33254
 Alpha  occ. eigenvalues --   -0.32252
 Alpha virt. eigenvalues --   -0.00111   0.00770   0.00904   0.01041   0.02210
 Alpha virt. eigenvalues --    0.02407   0.02612   0.03355   0.03757   0.04390
 Alpha virt. eigenvalues --    0.04475   0.04589   0.05321   0.06066   0.07024

 Mulliken charges:
               1
     1  C   -0.136914
     2  C   -0.260896
     3  O   -0.303268
     4  C   -0.333937
     5  C   -0.208498
     6  O   -0.240920
     7  C   -0.339168
     8  C   -0.321726
     9  C   -0.040644
    10  C   -0.367779
    11  C   -0.138818
    12  C   -0.363247
    13  O   -0.320284
    14  H    0.243214
    15  H    0.174147
    16  H    0.174581
    17  H    0.211166
    18  H    0.179788
    19  H    0.216695
    20  H    0.161112
    21  H    0.171691
    22  H    0.185490
    23  H    0.177352
    24  H    0.180536
    25  H    0.274656
    26  H    0.169116
    27  H    0.164076
    28  H    0.203668
    29  H    0.131505
    30  H    0.191252
    31  H    0.166056
 Sum of Mulliken charges =  -0.00000

 Dipole moment (field-independent basis, Debye):
    X=              0.3198    Y=              1.1640    Z=             -1.1084  Tot=              1.6388
 Quadrupole moment (field-independent basis, Debye-Ang):
   XX=            -70.9975   YY=            -80.4823   ZZ=            -81.7269
   XY=              7.2828   XZ=             -5.6672   YZ=              5.9695

  Exact polarizability: 175.363   3.286 154.381   0.835   3.165 153.022
 Approx polarizability: 146.641   1.418 141.637   1.179   0.449 141.613

                      1                      2                      3
                      A                      A                      A
 Frequencies --     13.4285                44.2953                67.5572
 Red. masses --      3.5023                 3.4338                 3.6658
 Frc consts  --      0.0004                 0.0040                 0.0099
 IR Inten    --      2.5386                 1.8165                 1.4438

                      4                      5                      6
                      A                      A                      A
 Frequencies --    123.4255               168.9179               207.9369
 Red. masses --      3.1338                 3.9305                 2.1613
 Frc consts  --      0.0281                 0.0661                 0.0551
 IR Inten    --      4.2408                 1.1416                 4.5156

                      7                      8                      9
                      A                      A                      A
 Frequencies --    241.9133               265.8950               307.9501
 Red. masses --      3.0929                 2.2579                 2.3225
 Frc consts  --      0.1066                 0.0941                 0.1298
 IR Inten    --      8.8921                 2.8637                 1.7383

                     10                     11                     12
                      A                      A                      A
 Frequencies --    370.9173               419.7930               421.0732
 Red. masses --      1.9449                 2.8096                 2.5137
 Frc consts  --      0.1577                 0.2917                 0.2626
 IR Inten    --      8.3314                 8.4313                 9.4326

                     13                     14                     15
                      A                      A                      A
 Frequencies --    444.0142               470.9238               536.5596
 Red. masses --      3.0702                 3.8967                 2.4282
 Frc consts  --      0.3566                 0.5092                 0.4119
 IR Inten    --      3.3606                 4.5049                 3.5953

                     16                     17                     18
                      A                      A                      A
 Frequencies --    554.4920               596.2382               666.9161
 Red. masses --      3.7124                 2.7570                 2.3399
 Frc consts  --      0.6725                 0.5775                 0.6132
 IR Inten    --     10.1216                 7.8832                11.1512

                     19                     20                     21
                      A                      A                      A
 Frequencies --    713.4423               819.7725               835.0878
 Red. masses --      2.8130                 2.1211                 1.5347
 Frc consts  --      0.8436                 0.8398                 0.6306
 IR Inten    --      1.2720                 7.8299                 0.5615

                     22                     23                     24
                      A                      A                      A
 Frequencies --    842.5515               867.2173               893.8717
 Red. masses --      3.3932                 1.8743                 2.4096
 Frc consts  --      1.4192                 0.8305                 1.1344
 IR Inten    --      9.6210                 6.3780                25.9940

                     25                     26                     27
                      A                      A                      A
 Frequencies --    905.8003               918.6877               923.6889
 Red. masses --      2.3895                 2.4646                 1.9695
 Frc consts  --      1.1551                 1.2256                 0.9900
 IR Inten    --     11.8945                 9.3705                64.0636

                     28                     29                     30
                      A                      A                      A
 Frequencies --    931.9444               951.1592               987.5358
 Red. masses --      2.2055                 1.5810                 1.8969
 Frc consts  --      1.1286                 0.8427                 1.0900
 IR Inten    --      8.0102                 4.5974                33.7915

                     31                     32                     33
                      A                      A                      A
 Frequencies --   1031.0683              1051.2107              1063.2617
 Red. masses --      2.1430                 2.5447                 1.5663
 Frc consts  --      1.3423                 1.6568                 1.0433
 IR Inten    --     28.4897               156.9338                98.6859

                     34                     35                     36
                      A                      A                      A
 Frequencies --   1070.6070              1071.7856              1084.8329
 Red. masses --      1.7981                 2.2755                 2.5122
 Frc consts  --      1.2143                 1.5401                 1.7419
 IR Inten    --     15.4376                15.4233               244.0666

                     37                     38                     39
                      A                      A                      A
 Frequencies --   1129.6933              1147.9068              1155.3495
 Red. masses --      2.1774                 3.8635                 2.4880
 Frc consts  --      1.6372                 2.9995                 1.9567
 IR Inten    --     97.7825                84.1600                13.4014

                     40                     41                     42
                      A                      A                      A
 Frequencies --   1171.7651              1178.8089              1213.6179
 Red. masses --      3.8574                 2.6083                 1.4127
 Frc consts  --      3.1205                 2.1355                 1.2260
 IR Inten    --    169.1053                19.8928                19.6680

                     43                     44                     45
                      A                      A                      A
 Frequencies --   1220.4275              1233.4591              1251.8404
 Red. masses --      1.3442                 1.6176                 1.4679
 Frc consts  --      1.1796                 1.4500                 1.3553
 IR Inten    --      6.2277                59.3691                39.7094

                     46                     47                     48
                      A                      A                      A
 Frequencies --   1288.0084              1288.9289              1318.9732
 Red. masses --      1.2012                 1.2089                 1.1476
 Frc consts  --      1.1741                 1.1833                 1.1763
 IR Inten    --     29.2897                 5.0607                 7.5442

                     49                     50                     51
                      A                      A                      A
 Frequencies --   1327.7969              1340.3135              1359.3663
 Red. masses --      1.1718                 1.2608                 1.3358
 Frc consts  --      1.2173                 1.3344                 1.4544
 IR Inten    --      8.2190                 7.5282                 8.3278

                     52                     53                     54
                      A                      A                      A
 Frequencies --   1371.9079              1372.8428              1383.2368
 Red. masses --      1.4398                 1.3899                 1.3565
 Frc consts  --      1.5967                 1.5434                 1.5292
 IR Inten    --      1.7934                23.0137                18.8094

                     55                     56                     57
                      A                      A                      A
 Frequencies --   1387.7413              1392.8385              1399.0215
 Red. masses --      1.4741                 1.7135                 1.2912
 Frc consts  --      1.6727                 1.9585                 1.4890
 IR Inten    --      2.3735                16.8299                 1.8736

                     58                     59                     60
                      A                      A                      A
 Frequencies --   1406.4197              1422.4929              1427.2444
 Red. masses --      1.3740                 1.3997                 1.4292
 Frc consts  --      1.6012                 1.6687                 1.7153
 IR Inten    --     11.5432                20.6851                 2.4734

                     61                     62                     63
                      A                      A                      A
 Frequencies --   1433.7596              1476.8990              1483.1721
 Red. masses --      1.3191                 1.1047                 1.0855
 Frc consts  --      1.5976                 1.4197                 1.4069
 IR Inten    --      9.9749                 4.5861                 7.7562

                     64                     65                     66
                      A                      A                      A
 Frequencies --   1490.1397              1495.9617              1496.1948
 Red. masses --      1.0977                 1.0941                 1.1066
 Frc consts  --      1.4361                 1.4426                 1.4596
 IR Inten    --      2.5247                11.7999                12.7400

                     67                     68                     69
                      A                      A                      A
 Frequencies --   1504.7186              1509.5255              1518.8861
 Red. masses --      1.0762                 1.0940                 1.0985
 Frc consts  --      1.4357                 1.4688                 1.4932
 IR Inten    --      7.0851                 3.8940                 3.6329

                     70                     71                     72
                      A                      A                      A
 Frequencies --   3040.0368              3042.5143              3053.8666
 Red. masses --      1.0697                 1.0696                 1.0690
 Frc consts  --      5.8244                 5.8336                 5.8737
 IR Inten    --     89.5739                27.1033                55.4651

                     73                     74                     75
                      A                      A                      A
 Frequencies --   3059.7972              3062.8134              3072.0961
 Red. masses --      1.0816                 1.0628                 1.0632
 Frc consts  --      5.9664                 5.8740                 5.9120
 IR Inten    --     59.2166                41.2412                30.8568

                     76                     77                     78
                      A                      A                      A
 Frequencies --   3073.3500              3076.9252              3080.3020
 Red. masses --      1.0676                 1.0626                 1.0623
 Frc consts  --      5.9414                 5.9274                 5.9389
 IR Inten    --     11.0798                22.8556                58.5676

                     79                     80                     81
                      A                      A                      A
 Frequencies --   3098.0638              3112.8585              3115.9402
 Red. masses --      1.0857                 1.0979                 1.0957
 Frc consts  --      6.1397                 6.2682                 6.2682
 IR Inten    --     63.8583                37.5520                16.0984

                     82                     83                     84
                      A                      A                      A
 Frequencies --   3118.8175              3128.9266              3133.2993
 Red. masses --      1.1020                 1.1038                 1.0988
 Frc consts  --      6.3158                 6.3669                 6.3559
 IR Inten    --     61.8754                42.6336                40.7664

                     85                     86                     87
                      A                      A                      A
 Frequencies --   3133.8276              3134.9116              3139.7379
 Red. masses --      1.0994                 1.1014                 1.0970
 Frc consts  --      6.3616                 6.3772                 6.3716
 IR Inten    --     64.6733                50.2933                18.8196

 - Thermochemistry -
 -------------------
 Temperature   298.150 Kelvin.  Pressure   1.00000 Atm.
 Atom     1 has atomic number  6 and mass  12.00000

 Molecular mass:   186.12559 amu.
 Principal axes and moments of inertia in atomic units:
                           1         2         3
     Eigenvalues --   933.550674453.194454525.74681
           X            0.99988   0.01479  -0.00554
           Y           -0.01265   0.95997   0.27983
           Z            0.00946  -0.27973   0.96003
 This molecule is an asymmetric top.
 Rotational symmetry number  1.
 Warning -- assumption of classical behavior for rotation
           may cause significant error
 Rotational temperatures (Kelvin)      0.09278     0.01945     0.01914
 Rotational constants (GHZ):           1.93320     0.40527     0.39877
 Zero-point vibrational energy     736679.0 (Joules/Mol)
                                  176.07051 (Kcal/Mol)
 Warning -- explicit consideration of  17 degrees of freedom as
           vibrations may cause significant error
 Vibrational temperatures:     19.32    63.73    97.20   177.58   243.04
          (Kelvin)            299.17   348.06   382.56   443.07   533.67
                              603.99   605.83   638.84   677.55   771.99
                              797.79   857.85   959.54  1026.48  1179.47
                             1201.51  1212.24  1247.73  1286.08  1303.24
                             1321.79  1328.98  1340.86  1368.51  1420.84
                             1483.48  1512.46  1529.80  1540.36  1542.06
                             1560.83  1625.38  1651.58  1662.29  1685.91
                             1696.04  1746.13  1755.92  1774.67  1801.12
                             1853.16  1854.48  1897.71  1910.40  1928.41
                             1955.82  1973.87  1975.21  1990.17  1996.65
                             2003.98  2012.88  2023.52  2046.65  2053.49
                             2062.86  2124.93  2133.95  2143.98  2152.36
                             2152.69  2164.95  2171.87  2185.34  4373.93
                             4377.50  4393.83  4402.37  4406.71  4420.06
                             4421.87  4427.01  4431.87  4457.42  4478.71
                             4483.14  4487.28  4501.83  4508.12  4508.88
                             4510.44  4517.38

 Zero-point correction=                           0.280586 (Hartree/Particle)
 Thermal correction to Energy=                    0.292535
 Thermal correction to Enthalpy=                  0.293480
 Thermal correction to Gibbs Free Energy=         0.240564
 Sum of electronic and zero-point Energies=           -617.216001
 Sum of electronic and thermal Energies=              -617.204052
 Sum of electronic and thermal Enthalpies=            -617.203108
 Sum of electronic and thermal Free Energies=         -617.256023

                     E (Thermal)             CV                S
                      KCal/Mol        Cal/Mol-Kelvin    Cal/Mol-Kelvin
 Total                  183.569             46.695            111.371
 Electronic               0.000              0.000              0.000
 Translational            0.889              2.981             41.570
 Rotational               0.889              2.981             31.309
 Vibrational            181.791             40.734             38.491
 Vibration     1          0.593              1.987              7.425
 Vibration     2          0.595              1.980              5.057
 Vibration     3          0.598              1.970              4.223
 Vibration     4          0.610              1.929              3.046
 Vibration     5          0.625              1.881              2.447
 Vibration     6          0.641              1.829              2.062
 Vibration     7          0.658              1.776              1.789
 Vibration     8          0.672              1.736              1.623
 Vibration     9          0.698              1.659              1.373
 Vibration    10          0.743              1.532              1.076
 Vibration    11          0.782              1.427              0.893
 Vibration    12          0.784              1.424              0.888
 Vibration    13          0.804              1.374              0.814
 Vibration    14          0.828              1.315              0.735
 Vibration    15          0.892              1.169              0.573
 Vibration    16          0.910              1.130              0.535
 Vibration    17          0.954              1.040              0.456

                           ! Non-Optimized Parameters !
 Normal termination of Gaussian 16 at Sun Nov  4 23:03:40 2018.
