 Gaussian 16, Revision A.03,
 Gaussian 16:  ES64L-G16RevA.03 25-Dec-2016

 ----------------------------------------------------------------------
 #M062X/6-311++G(2d,2p) opt=ModRedundant freq=noraman SCRF=(Solvent=Wat
 er)
 ----------------------------------------------------------------------

 -----------------------------
 D_a1-4_2SO_PHI.inp_extract_24
 -----------------------------
 Symbolic Z-matrix:
 Charge =  0 Multiplicity = 1

 SCF Done:  E(RM062X) =  -617.494841780     A.U. after   12 cycles
 SCF Done:  E(RM062X) =  -617.496439965     A.U. after   10 cycles
 SCF Done:  E(RM062X) =  -617.496560926     A.U. after    9 cycles
 SCF Done:  E(RM062X) =  -617.496580210     A.U. after    9 cycles
 SCF Done:  E(RM062X) =  -617.496584919     A.U. after    9 cycles
 SCF Done:  E(RM062X) =  -617.496587251     A.U. after    9 cycles
 SCF Done:  E(RM062X) =  -617.496587951     A.U. after    8 cycles
 SCF Done:  E(RM062X) =  -617.496587476     A.U. after    8 cycles
 SCF Done:  E(RM062X) =  -617.496587131     A.U. after    7 cycles
 Optimization completed.
    -- Stationary point found.
 Normal termination of Gaussian 16 at Sun Nov  4 22:01:43 2018.

 ----------------------------------------------------------------------
 #N Geom=AllCheck Guess=TCheck SCRF=Check GenChk RM062X/6-311++G(2d,2p)
  Freq
 ----------------------------------------------------------------------

 Structure from the checkpoint file:  "D_a1-4_2SO_PHI.inp_extract_24.chk"
 -----------------------------
 D_a1-4_2SO_PHI.inp_extract_24
 -----------------------------
 Charge =  0 Multiplicity = 1

                         Standard orientation:
 ---------------------------------------------------------------------
 Center     Atomic      Atomic             Coordinates (Angstroms)
 Number     Number       Type             X           Y           Z
 ---------------------------------------------------------------------
      1          6           0        0.979596    0.041262   -0.510013
      2          6           0        3.766724   -0.335342    0.404005
      3          8           0       -1.823119    0.719020   -1.145525
      4          6           0        1.771859   -1.261265   -0.417525
      5          6           0        1.846892    1.205865   -0.013711
      6          8           0       -0.195435   -0.119582    0.282243
      7          6           0       -2.137609    0.813645    1.257188
      8          6           0       -2.949629   -0.480046    1.211806
      9          6           0       -1.161880    0.881104    0.092914
     10          6           0       -3.602340   -0.621946   -0.162317
     11          6           0       -2.545986   -0.508117   -1.248634
     12          6           0        3.309022    0.919913   -0.348542
     13          8           0        2.681636   -1.224382    0.665387
     14          1           0        0.682808    0.199366   -1.551019
     15          1           0        4.541461   -0.864882   -0.158461
     16          1           0        4.168268   -0.069975    1.380651
     17          1           0        1.089254   -2.089954   -0.241555
     18          1           0        2.308912   -1.446687   -1.352792
     19          1           0        1.724955    1.279963    1.068905
     20          1           0        1.528890    2.150100   -0.451274
     21          1           0       -1.580010    0.906648    2.188365
     22          1           0       -2.806598    1.672504    1.178324
     23          1           0       -2.290782   -1.331749    1.391885
     24          1           0       -3.701769   -0.478890    2.000013
     25          1           0       -0.690729    1.863023    0.031031
     26          1           0       -4.116906   -1.578572   -0.258100
     27          1           0       -4.343071    0.169078   -0.302853
     28          1           0       -2.990993   -0.502735   -2.241176
     29          1           0       -1.846748   -1.346757   -1.187486
     30          1           0        3.411956    0.779574   -1.426009
     31          1           0        3.946550    1.759065   -0.076307
 ---------------------------------------------------------------------

 SCF Done:  E(RM062X) =  -617.496587131     A.U. after    1 cycles

 The electronic state is 1-A.
 Alpha  occ. eigenvalues --  -19.63040 -19.62823 -19.62803 -10.63331 -10.58756
 Alpha  occ. eigenvalues --  -10.58065 -10.58047 -10.57667 -10.53440 -10.53327
 Alpha  occ. eigenvalues --  -10.53002 -10.52947 -10.52817  -1.19985  -1.16393
 Alpha  occ. eigenvalues --   -1.13184  -0.90787  -0.89572  -0.87233  -0.84280
 Alpha  occ. eigenvalues --   -0.75129  -0.74143  -0.72747  -0.71123  -0.64848
 Alpha  occ. eigenvalues --   -0.62461  -0.60072  -0.59162  -0.58107  -0.55558
 Alpha  occ. eigenvalues --   -0.54593  -0.53604  -0.52602  -0.50103  -0.49386
 Alpha  occ. eigenvalues --   -0.47344  -0.46268  -0.46039  -0.45389  -0.45012
 Alpha  occ. eigenvalues --   -0.43172  -0.42773  -0.42160  -0.41120  -0.39536
 Alpha  occ. eigenvalues --   -0.38348  -0.37252  -0.36147  -0.34425  -0.33254
 Alpha  occ. eigenvalues --   -0.32252
 Alpha virt. eigenvalues --   -0.00111   0.00770   0.00904   0.01041   0.02210
 Alpha virt. eigenvalues --    0.02407   0.02612   0.03355   0.03757   0.04390
 Alpha virt. eigenvalues --    0.04475   0.04589   0.05321   0.06066   0.07024

 Mulliken charges:
               1
     1  C   -0.136925
     2  C   -0.260893
     3  O   -0.303266
     4  C   -0.333969
     5  C   -0.208490
     6  O   -0.240918
     7  C   -0.339180
     8  C   -0.321728
     9  C   -0.040618
    10  C   -0.367773
    11  C   -0.138813
    12  C   -0.363232
    13  O   -0.320286
    14  H    0.243226
    15  H    0.174146
    16  H    0.174582
    17  H    0.211170
    18  H    0.179788
    19  H    0.216691
    20  H    0.161104
    21  H    0.171690
    22  H    0.185489
    23  H    0.177354
    24  H    0.180537
    25  H    0.274651
    26  H    0.169115
    27  H    0.164077
    28  H    0.203669
    29  H    0.131493
    30  H    0.191251
    31  H    0.166060
 Sum of Mulliken charges =  -0.00000

 Dipole moment (field-independent basis, Debye):
    X=              0.3199    Y=              1.1637    Z=             -1.1087  Tot=              1.6388
 Quadrupole moment (field-independent basis, Debye-Ang):
   XX=            -70.9976   YY=            -80.4785   ZZ=            -81.7308
   XY=              7.2811   XZ=             -5.6694   YZ=              5.9690

  Exact polarizability: 175.363   3.286 154.384   0.834   3.165 153.020
 Approx polarizability: 146.640   1.419 141.637   1.178   0.449 141.613

                      1                      2                      3
                      A                      A                      A
 Frequencies --     13.4891                44.2932                67.5614
 Red. masses --      3.5021                 3.4341                 3.6658
 Frc consts  --      0.0004                 0.0040                 0.0099
 IR Inten    --      2.5364                 1.8190                 1.4435

                      4                      5                      6
                      A                      A                      A
 Frequencies --    123.4275               168.9159               207.9384
 Red. masses --      3.1336                 3.9305                 2.1615
 Frc consts  --      0.0281                 0.0661                 0.0551
 IR Inten    --      4.2405                 1.1413                 4.5155

                      7                      8                      9
                      A                      A                      A
 Frequencies --    241.9252               265.9007               307.9507
 Red. masses --      3.0929                 2.2576                 2.3227
 Frc consts  --      0.1067                 0.0940                 0.1298
 IR Inten    --      8.8906                 2.8647                 1.7378

                     10                     11                     12
                      A                      A                      A
 Frequencies --    370.9135               419.7921               421.0694
 Red. masses --      1.9448                 2.8113                 2.5124
 Frc consts  --      0.1576                 0.2919                 0.2625
 IR Inten    --      8.3288                 8.4451                 9.4226

                     13                     14                     15
                      A                      A                      A
 Frequencies --    444.0105               470.9242               536.5572
 Red. masses --      3.0704                 3.8964                 2.4280
 Frc consts  --      0.3566                 0.5091                 0.4118
 IR Inten    --      3.3609                 4.5052                 3.5965

                     16                     17                     18
                      A                      A                      A
 Frequencies --    554.4951               596.2387               666.9224
 Red. masses --      3.7123                 2.7571                 2.3399
 Frc consts  --      0.6725                 0.5775                 0.6132
 IR Inten    --     10.1219                 7.8815                11.1526

                     19                     20                     21
                      A                      A                      A
 Frequencies --    713.4455               819.7740               835.0764
 Red. masses --      2.8131                 2.1210                 1.5347
 Frc consts  --      0.8436                 0.8398                 0.6306
 IR Inten    --      1.2721                 7.8316                 0.5619

                     22                     23                     24
                      A                      A                      A
 Frequencies --    842.5503               867.2198               893.8757
 Red. masses --      3.3935                 1.8743                 2.4096
 Frc consts  --      1.4193                 0.8305                 1.1344
 IR Inten    --      9.6170                 6.3787                25.9902

                     25                     26                     27
                      A                      A                      A
 Frequencies --    905.7963               918.6883               923.6863
 Red. masses --      2.3895                 2.4645                 1.9694
 Frc consts  --      1.1551                 1.2255                 0.9900
 IR Inten    --     11.8953                 9.3732                64.0563

                     28                     29                     30
                      A                      A                      A
 Frequencies --    931.9477               951.1596               987.5386
 Red. masses --      2.2056                 1.5810                 1.8969
 Frc consts  --      1.1287                 0.8427                 1.0899
 IR Inten    --      8.0110                 4.5963                33.7914

                     31                     32                     33
                      A                      A                      A
 Frequencies --   1031.0646              1051.2100              1063.2650
 Red. masses --      2.1429                 2.5448                 1.5664
 Frc consts  --      1.3422                 1.6568                 1.0433
 IR Inten    --     28.4711               156.9107                98.7004

                     34                     35                     36
                      A                      A                      A
 Frequencies --   1070.6067              1071.7868              1084.8357
 Red. masses --      1.7981                 2.2756                 2.5123
 Frc consts  --      1.2143                 1.5402                 1.7420
 IR Inten    --     15.4257                15.4327               244.0845

                     37                     38                     39
                      A                      A                      A
 Frequencies --   1129.6922              1147.9086              1155.3508
 Red. masses --      2.1773                 3.8635                 2.4879
 Frc consts  --      1.6372                 2.9995                 1.9566
 IR Inten    --     97.7965                84.1518                13.3929

                     40                     41                     42
                      A                      A                      A
 Frequencies --   1171.7663              1178.8104              1213.6210
 Red. masses --      3.8575                 2.6085                 1.4128
 Frc consts  --      3.1206                 2.1356                 1.2260
 IR Inten    --    169.1161                19.8945                19.6778

                     43                     44                     45
                      A                      A                      A
 Frequencies --   1220.4291              1233.4632              1251.8419
 Red. masses --      1.3441                 1.6176                 1.4679
 Frc consts  --      1.1796                 1.4500                 1.3553
 IR Inten    --      6.2250                59.3553                39.7145

                     46                     47                     48
                      A                      A                      A
 Frequencies --   1288.0116              1288.9302              1318.9767
 Red. masses --      1.2013                 1.2088                 1.1476
 Frc consts  --      1.1742                 1.1832                 1.1763
 IR Inten    --     29.3280                 5.0230                 7.5438

                     49                     50                     51
                      A                      A                      A
 Frequencies --   1327.7995              1340.3160              1359.3676
 Red. masses --      1.1718                 1.2608                 1.3358
 Frc consts  --      1.2173                 1.3345                 1.4543
 IR Inten    --      8.2195                 7.5318                 8.3330

                     52                     53                     54
                      A                      A                      A
 Frequencies --   1371.9111              1372.8408              1383.2337
 Red. masses --      1.4401                 1.3896                 1.3565
 Frc consts  --      1.5970                 1.5430                 1.5292
 IR Inten    --      1.7868                23.0304                18.8019

                     55                     56                     57
                      A                      A                      A
 Frequencies --   1387.7468              1392.8411              1399.0142
 Red. masses --      1.4741                 1.7135                 1.2912
 Frc consts  --      1.6727                 1.9585                 1.4890
 IR Inten    --      2.3643                16.8310                 1.8730

                     58                     59                     60
                      A                      A                      A
 Frequencies --   1406.4180              1422.4912              1427.2415
 Red. masses --      1.3740                 1.3998                 1.4290
 Frc consts  --      1.6013                 1.6689                 1.7151
 IR Inten    --     11.5576                20.6857                 2.4639

                     61                     62                     63
                      A                      A                      A
 Frequencies --   1433.7495              1476.8861              1483.1634
 Red. masses --      1.3192                 1.1047                 1.0855
 Frc consts  --      1.5977                 1.4197                 1.4069
 IR Inten    --      9.9722                 4.5891                 7.7536

                     64                     65                     66
                      A                      A                      A
 Frequencies --   1490.1472              1495.9705              1496.1877
 Red. masses --      1.0977                 1.0942                 1.1065
 Frc consts  --      1.4362                 1.4428                 1.4594
 IR Inten    --      2.5247                11.8531                12.6842

                     67                     68                     69
                      A                      A                      A
 Frequencies --   1504.7274              1509.5169              1518.8880
 Red. masses --      1.0762                 1.0940                 1.0985
 Frc consts  --      1.4357                 1.4688                 1.4932
 IR Inten    --      7.0834                 3.8944                 3.6364

                     70                     71                     72
                      A                      A                      A
 Frequencies --   3040.0436              3042.5201              3053.8702
 Red. masses --      1.0697                 1.0696                 1.0690
 Frc consts  --      5.8245                 5.8336                 5.8737
 IR Inten    --     89.5574                27.1284                55.4487

                     73                     74                     75
                      A                      A                      A
 Frequencies --   3059.8047              3062.8150              3072.0945
 Red. masses --      1.0816                 1.0628                 1.0632
 Frc consts  --      5.9665                 5.8740                 5.9120
 IR Inten    --     59.2181                41.2375                30.8674

                     76                     77                     78
                      A                      A                      A
 Frequencies --   3073.3537              3076.9257              3080.3045
 Red. masses --      1.0676                 1.0626                 1.0623
 Frc consts  --      5.9414                 5.9274                 5.9389
 IR Inten    --     11.0764                22.8488                58.5648

                     79                     80                     81
                      A                      A                      A
 Frequencies --   3098.0509              3112.8622              3115.9412
 Red. masses --      1.0857                 1.0979                 1.0958
 Frc consts  --      6.1396                 6.2682                 6.2682
 IR Inten    --     63.8658                37.5522                16.0939

                     82                     83                     84
                      A                      A                      A
 Frequencies --   3118.8172              3128.9282              3133.2990
 Red. masses --      1.1020                 1.1038                 1.0988
 Frc consts  --      6.3158                 6.3669                 6.3559
 IR Inten    --     61.8871                42.6371                40.7934

                     85                     86                     87
                      A                      A                      A
 Frequencies --   3133.8262              3134.9136              3139.7390
 Red. masses --      1.0994                 1.1014                 1.0970
 Frc consts  --      6.3616                 6.3772                 6.3716
 IR Inten    --     64.6608                50.2725                18.8239

 - Thermochemistry -
 -------------------
 Temperature   298.150 Kelvin.  Pressure   1.00000 Atm.
 Atom     1 has atomic number  6 and mass  12.00000

 Molecular mass:   186.12559 amu.
 Principal axes and moments of inertia in atomic units:
                           1         2         3
     Eigenvalues --   933.562714453.145524525.70076
           X            0.99988   0.01479  -0.00555
           Y           -0.01265   0.95997   0.27981
           Z            0.00946  -0.27971   0.96004
 This molecule is an asymmetric top.
 Rotational symmetry number  1.
 Warning -- assumption of classical behavior for rotation
           may cause significant error
 Rotational temperatures (Kelvin)      0.09278     0.01945     0.01914
 Rotational constants (GHZ):           1.93318     0.40527     0.39878
 Zero-point vibrational energy     736679.7 (Joules/Mol)
                                  176.07067 (Kcal/Mol)
 Warning -- explicit consideration of  17 degrees of freedom as
           vibrations may cause significant error
 Vibrational temperatures:     19.41    63.73    97.21   177.58   243.03
          (Kelvin)            299.18   348.08   382.57   443.07   533.66
                              603.99   605.82   638.83   677.55   771.99
                              797.79   857.85   959.55  1026.49  1179.47
                             1201.49  1212.24  1247.74  1286.09  1303.24
                             1321.79  1328.98  1340.86  1368.51  1420.85
                             1483.47  1512.46  1529.80  1540.36  1542.06
                             1560.84  1625.38  1651.58  1662.29  1685.91
                             1696.05  1746.13  1755.93  1774.68  1801.12
                             1853.16  1854.48  1897.71  1910.41  1928.42
                             1955.83  1973.87  1975.21  1990.16  1996.66
                             2003.99  2012.87  2023.52  2046.65  2053.48
                             2062.85  2124.91  2133.94  2143.99  2152.37
                             2152.68  2164.97  2171.86  2185.34  4373.94
                             4377.51  4393.84  4402.38  4406.71  4420.06
                             4421.87  4427.01  4431.87  4457.40  4478.71
                             4483.14  4487.28  4501.83  4508.12  4508.88
                             4510.44  4517.38

 Zero-point correction=                           0.280586 (Hartree/Particle)
 Thermal correction to Energy=                    0.292535
 Thermal correction to Enthalpy=                  0.293480
 Thermal correction to Gibbs Free Energy=         0.240568
 Sum of electronic and zero-point Energies=           -617.216001
 Sum of electronic and thermal Energies=              -617.204052
 Sum of electronic and thermal Enthalpies=            -617.203108
 Sum of electronic and thermal Free Energies=         -617.256019

                     E (Thermal)             CV                S
                      KCal/Mol        Cal/Mol-Kelvin    Cal/Mol-Kelvin
 Total                  183.569             46.695            111.361
 Electronic               0.000              0.000              0.000
 Translational            0.889              2.981             41.570
 Rotational               0.889              2.981             31.309
 Vibrational            181.791             40.734             38.482
 Vibration     1          0.593              1.987              7.416
 Vibration     2          0.595              1.980              5.057
 Vibration     3          0.598              1.970              4.223
 Vibration     4          0.610              1.929              3.046
 Vibration     5          0.625              1.881              2.448
 Vibration     6          0.641              1.829              2.062
 Vibration     7          0.658              1.776              1.789
 Vibration     8          0.672              1.736              1.623
 Vibration     9          0.698              1.659              1.373
 Vibration    10          0.743              1.532              1.076
 Vibration    11          0.782              1.427              0.893
 Vibration    12          0.784              1.424              0.888
 Vibration    13          0.804              1.374              0.814
 Vibration    14          0.828              1.315              0.735
 Vibration    15          0.892              1.169              0.573
 Vibration    16          0.910              1.130              0.535
 Vibration    17          0.954              1.040              0.456

                           ! Non-Optimized Parameters !
 Normal termination of Gaussian 16 at Sun Nov  4 22:55:25 2018.
