 Gaussian 16, Revision A.03,
 Gaussian 16:  ES64L-G16RevA.03 25-Dec-2016

 ----------------------------------------------------------------------
 #M062X/6-311++G(2d,2p) opt=ModRedundant freq=noraman SCRF=(Solvent=Wat
 er)
 ----------------------------------------------------------------------

 -----------------------------
 D_a1-4_2SO_PHI.inp_extract_21
 -----------------------------
 Symbolic Z-matrix:
 Charge =  0 Multiplicity = 1

 SCF Done:  E(RM062X) =  -617.490559197     A.U. after   12 cycles
 SCF Done:  E(RM062X) =  -617.492133868     A.U. after   11 cycles
 SCF Done:  E(RM062X) =  -617.492386717     A.U. after   11 cycles
 SCF Done:  E(RM062X) =  -617.492597223     A.U. after   10 cycles
 SCF Done:  E(RM062X) =  -617.492614045     A.U. after    9 cycles
 SCF Done:  E(RM062X) =  -617.492616495     A.U. after    8 cycles
 SCF Done:  E(RM062X) =  -617.492617489     A.U. after    8 cycles
 SCF Done:  E(RM062X) =  -617.492617601     A.U. after    8 cycles
 Optimization completed.
    -- Stationary point found.
 Normal termination of Gaussian 16 at Sun Nov  4 21:59:10 2018.

 ----------------------------------------------------------------------
 #N Geom=AllCheck Guess=TCheck SCRF=Check GenChk RM062X/6-311++G(2d,2p)
  Freq
 ----------------------------------------------------------------------

 Structure from the checkpoint file:  "D_a1-4_2SO_PHI.inp_extract_21.chk"
 -----------------------------
 D_a1-4_2SO_PHI.inp_extract_21
 -----------------------------
 Charge =  0 Multiplicity = 1

                         Standard orientation:
 ---------------------------------------------------------------------
 Center     Atomic      Atomic             Coordinates (Angstroms)
 Number     Number       Type             X           Y           Z
 ---------------------------------------------------------------------
      1          6           0        0.849454    0.067778   -0.314387
      2          6           0        3.780249   -0.160183    0.001364
      3          8           0       -1.479731    1.229917    0.368126
      4          6           0        1.797538   -0.910441   -1.007697
      5          6           0        1.641613    0.929819    0.675519
      6          8           0       -0.144849   -0.710403    0.344246
      7          6           0       -2.397938   -0.927980    1.084267
      8          6           0       -3.131087   -1.057928   -0.246584
      9          6           0       -1.198154   -0.002510    0.979345
     10          6           0       -3.463068    0.339472   -0.762380
     11          6           0       -2.181509    1.143173   -0.877558
     12          6           0        3.038534    1.178315    0.112991
     13          8           0        2.881059   -1.255672   -0.165583
     14          1           0        0.390189    0.704044   -1.070268
     15          1           0        4.489487   -0.144286   -0.831591
     16          1           0        4.328076   -0.370532    0.918503
     17          1           0        1.265898   -1.828766   -1.247228
     18          1           0        2.173630   -0.474377   -1.938531
     19          1           0        1.721232    0.381099    1.616608
     20          1           0        1.115771    1.861477    0.875060
     21          1           0       -2.051933   -1.892044    1.454845
     22          1           0       -3.072330   -0.506712    1.832281
     23          1           0       -2.496109   -1.571721   -0.971855
     24          1           0       -4.032983   -1.655619   -0.121326
     25          1           0       -0.857766    0.283567    1.978709
     26          1           0       -3.944302    0.299840   -1.739807
     27          1           0       -4.147461    0.839684   -0.073158
     28          1           0       -2.372231    2.172838   -1.171273
     29          1           0       -1.537519    0.684289   -1.633681
     30          1           0        2.954978    1.652569   -0.866760
     31          1           0        3.607752    1.856830    0.745879
 ---------------------------------------------------------------------

 SCF Done:  E(RM062X) =  -617.492617601     A.U. after    1 cycles

 The electronic state is 1-A.
 Alpha  occ. eigenvalues --  -19.63541 -19.62760 -19.62714 -10.63526 -10.58544
 Alpha  occ. eigenvalues --  -10.58148 -10.57971 -10.57951 -10.53290 -10.53175
 Alpha  occ. eigenvalues --  -10.53107 -10.53037 -10.52938  -1.19894  -1.16315
 Alpha  occ. eigenvalues --   -1.13166  -0.91008  -0.89689  -0.87387  -0.84242
 Alpha  occ. eigenvalues --   -0.74945  -0.74529  -0.73145  -0.70694  -0.64888
 Alpha  occ. eigenvalues --   -0.62675  -0.59672  -0.59170  -0.58242  -0.55823
 Alpha  occ. eigenvalues --   -0.54135  -0.53791  -0.52578  -0.50297  -0.48882
 Alpha  occ. eigenvalues --   -0.48286  -0.46710  -0.45684  -0.45244  -0.44859
 Alpha  occ. eigenvalues --   -0.43840  -0.42637  -0.41794  -0.40645  -0.39471
 Alpha  occ. eigenvalues --   -0.38786  -0.37429  -0.36144  -0.34719  -0.32859
 Alpha  occ. eigenvalues --   -0.32116
 Alpha virt. eigenvalues --   -0.00163   0.00773   0.00841   0.01118   0.02221
 Alpha virt. eigenvalues --    0.02439   0.02634   0.03435   0.03612   0.04433
 Alpha virt. eigenvalues --    0.04554   0.04676   0.05720   0.05939   0.06922

 Mulliken charges:
               1
     1  C   -0.001411
     2  C   -0.267107
     3  O   -0.246470
     4  C   -0.442319
     5  C   -0.126134
     6  O   -0.283733
     7  C   -0.479076
     8  C   -0.257916
     9  C   -0.017059
    10  C   -0.418407
    11  C   -0.098583
    12  C   -0.360459
    13  O   -0.328149
    14  H    0.194305
    15  H    0.172604
    16  H    0.174305
    17  H    0.206755
    18  H    0.189887
    19  H    0.213874
    20  H    0.181961
    21  H    0.182383
    22  H    0.194855
    23  H    0.164935
    24  H    0.186402
    25  H    0.234557
    26  H    0.178289
    27  H    0.167295
    28  H    0.200131
    29  H    0.132654
    30  H    0.184857
    31  H    0.166775
 Sum of Mulliken charges =  -0.00000

 Dipole moment (field-independent basis, Debye):
    X=             -1.3408    Y=              2.0633    Z=             -1.6206  Tot=              2.9464
 Quadrupole moment (field-independent basis, Debye-Ang):
   XX=            -72.3359   YY=            -85.8231   ZZ=            -76.0182
   XY=              8.1761   XZ=              0.5992   YZ=             -1.0793

  Exact polarizability: 174.367   2.163 154.012   1.026  -1.124 154.825
 Approx polarizability: 145.459   0.377 142.009   0.516  -1.254 143.361

                      1                      2                      3
                      A                      A                      A
 Frequencies --     48.3032                57.0368                80.8588
 Red. masses --      3.5101                 3.2308                 3.3229
 Frc consts  --      0.0048                 0.0062                 0.0128
 IR Inten    --      2.5150                 1.7776                 1.6228

                      4                      5                      6
                      A                      A                      A
 Frequencies --    147.5509               155.8147               203.3915
 Red. masses --      3.6717                 2.9765                 2.6453
 Frc consts  --      0.0471                 0.0426                 0.0645
 IR Inten    --      2.3306                 3.8315                10.4849

                      7                      8                      9
                      A                      A                      A
 Frequencies --    226.9198               265.9461               309.6513
 Red. masses --      2.9722                 2.3598                 2.4688
 Frc consts  --      0.0902                 0.0983                 0.1395
 IR Inten    --      8.6819                 1.1150                 2.4021

                     10                     11                     12
                      A                      A                      A
 Frequencies --    357.5726               397.0537               427.2209
 Red. masses --      1.8031                 2.6960                 2.4664
 Frc consts  --      0.1358                 0.2504                 0.2652
 IR Inten    --      2.5168                15.8454                 4.7030

                     13                     14                     15
                      A                      A                      A
 Frequencies --    443.7522               455.7419               535.4444
 Red. masses --      3.1653                 3.8439                 2.5927
 Frc consts  --      0.3672                 0.4704                 0.4380
 IR Inten    --      3.1296                 2.1443                 3.3751

                     16                     17                     18
                      A                      A                      A
 Frequencies --    576.3100               591.1018               662.8367
 Red. masses --      3.7499                 2.6950                 2.2817
 Frc consts  --      0.7338                 0.5548                 0.5906
 IR Inten    --     10.5036                 2.9152                11.3626

                     19                     20                     21
                      A                      A                      A
 Frequencies --    727.1986               813.5726               826.9138
 Red. masses --      3.1005                 2.1078                 1.9443
 Frc consts  --      0.9660                 0.8220                 0.7833
 IR Inten    --      1.3844                 2.8486                 1.9790

                     22                     23                     24
                      A                      A                      A
 Frequencies --    838.9618               862.5808               899.8201
 Red. masses --      2.4223                 1.8527                 2.3315
 Frc consts  --      1.0045                 0.8122                 1.1122
 IR Inten    --      6.0155                 4.0566                 6.8452

                     25                     26                     27
                      A                      A                      A
 Frequencies --    907.4305               916.9769               924.5457
 Red. masses --      2.5468                 2.4620                 1.9698
 Frc consts  --      1.2356                 1.2197                 0.9920
 IR Inten    --     24.3828                 6.3516                70.7435

                     28                     29                     30
                      A                      A                      A
 Frequencies --    933.0503               948.0488               977.7430
 Red. masses --      2.1960                 1.5832                 1.9419
 Frc consts  --      1.1264                 0.8384                 1.0938
 IR Inten    --     10.8405                 9.0649                40.0124

                     31                     32                     33
                      A                      A                      A
 Frequencies --   1032.6219              1049.9282              1062.7184
 Red. masses --      2.2661                 2.4330                 1.6586
 Frc consts  --      1.4237                 1.5802                 1.1036
 IR Inten    --     10.2000               129.3264               137.6711

                     34                     35                     36
                      A                      A                      A
 Frequencies --   1066.4388              1074.7409              1084.0557
 Red. masses --      1.7050                 2.1287                 2.2455
 Frc consts  --      1.1425                 1.4487                 1.5548
 IR Inten    --      1.3761                43.3681               139.1619

                     37                     38                     39
                      A                      A                      A
 Frequencies --   1135.0345              1147.0255              1156.5381
 Red. masses --      2.3352                 3.9744                 2.4899
 Frc consts  --      1.7726                 3.0809                 1.9622
 IR Inten    --     72.7552                99.7787                21.6666

                     40                     41                     42
                      A                      A                      A
 Frequencies --   1162.4788              1190.3429              1212.6356
 Red. masses --      2.4187                 3.1069                 1.4024
 Frc consts  --      1.9258                 2.5937                 1.2150
 IR Inten    --     50.5508               169.0091                17.9729

                     43                     44                     45
                      A                      A                      A
 Frequencies --   1216.5041              1237.1903              1250.2226
 Red. masses --      1.4038                 1.7668                 1.4762
 Frc consts  --      1.2240                 1.5933                 1.3594
 IR Inten    --      2.5477                91.9374                32.5382

                     46                     47                     48
                      A                      A                      A
 Frequencies --   1287.3293              1292.5604              1323.8798
 Red. masses --      1.1969                 1.2241                 1.1517
 Frc consts  --      1.1687                 1.2050                 1.1893
 IR Inten    --     16.1173                27.9339                11.1381

                     49                     50                     51
                      A                      A                      A
 Frequencies --   1329.5073              1344.6587              1359.7732
 Red. masses --      1.1894                 1.3117                 1.4279
 Frc consts  --      1.2386                 1.3974                 1.5555
 IR Inten    --     13.1903                 5.3204                 1.7133

                     52                     53                     54
                      A                      A                      A
 Frequencies --   1363.4499              1374.8539              1386.7756
 Red. masses --      1.4965                 1.3887                 1.4261
 Frc consts  --      1.6391                 1.5466                 1.6159
 IR Inten    --      4.2377                 4.9155                 8.1184

                     55                     56                     57
                      A                      A                      A
 Frequencies --   1389.2787              1397.1331              1402.2324
 Red. masses --      1.2775                 1.7569                 1.2879
 Frc consts  --      1.4527                 2.0206                 1.4920
 IR Inten    --     13.2797                24.7475                 7.0586

                     58                     59                     60
                      A                      A                      A
 Frequencies --   1415.3130              1423.5154              1431.7142
 Red. masses --      1.3785                 1.3299                 1.3079
 Frc consts  --      1.6269                 1.5878                 1.5796
 IR Inten    --      7.4273                 4.0474                 5.4150

                     61                     62                     63
                      A                      A                      A
 Frequencies --   1448.0758              1474.5442              1484.6183
 Red. masses --      1.3343                 1.1007                 1.0898
 Frc consts  --      1.6484                 1.4100                 1.4152
 IR Inten    --     15.7918                 6.3365                 8.5273

                     64                     65                     66
                      A                      A                      A
 Frequencies --   1491.4871              1494.9353              1496.1792
 Red. masses --      1.0915                 1.1151                 1.0950
 Frc consts  --      1.4306                 1.4683                 1.4443
 IR Inten    --      0.7333                17.1181                10.2387

                     67                     68                     69
                      A                      A                      A
 Frequencies --   1503.6228              1507.9827              1517.7630
 Red. masses --      1.0775                 1.0950                 1.0987
 Frc consts  --      1.4354                 1.4671                 1.4912
 IR Inten    --      6.9515                 2.9882                 3.3663

                     70                     71                     72
                      A                      A                      A
 Frequencies --   3040.5851              3043.2548              3048.9214
 Red. masses --      1.0689                 1.0683                 1.0705
 Frc consts  --      5.8222                 5.8296                 5.8630
 IR Inten    --    112.6533                47.3844                52.6448

                     73                     74                     75
                      A                      A                      A
 Frequencies --   3051.8946              3064.0836              3069.8456
 Red. masses --      1.0819                 1.0651                 1.0643
 Frc consts  --      5.9370                 5.8917                 5.9094
 IR Inten    --     37.4969                26.5958                37.9186

                     76                     77                     78
                      A                      A                      A
 Frequencies --   3070.0137              3078.1612              3079.1385
 Red. masses --      1.0671                 1.0635                 1.0642
 Frc consts  --      5.9255                 5.9372                 5.9450
 IR Inten    --      4.0601                47.5432                70.2826

                     79                     80                     81
                      A                      A                      A
 Frequencies --   3106.2708              3115.0447              3117.0805
 Red. masses --      1.0826                 1.0958                 1.0977
 Frc consts  --      6.1548                 6.2651                 6.2839
 IR Inten    --     57.6635                13.8761                40.0178

                     82                     83                     84
                      A                      A                      A
 Frequencies --   3120.8911              3129.5353              3132.6579
 Red. masses --      1.1013                 1.1026                 1.1000
 Frc consts  --      6.3200                 6.3628                 6.3599
 IR Inten    --     59.2970                35.7093                69.8323

                     85                     86                     87
                      A                      A                      A
 Frequencies --   3136.8271              3137.9707              3141.0873
 Red. masses --      1.0983                 1.0984                 1.0965
 Frc consts  --      6.3675                 6.3728                 6.3740
 IR Inten    --     76.8870                 1.3803                20.2604

 - Thermochemistry -
 -------------------
 Temperature   298.150 Kelvin.  Pressure   1.00000 Atm.
 Atom     1 has atomic number  6 and mass  12.00000

 Molecular mass:   186.12559 amu.
 Principal axes and moments of inertia in atomic units:
                           1         2         3
     Eigenvalues --   932.580804219.977314464.43807
           X            0.99988   0.01499   0.00277
           Y           -0.01494   0.99974  -0.01735
           Z           -0.00303   0.01730   0.99985
 This molecule is an asymmetric top.
 Rotational symmetry number  1.
 Warning -- assumption of classical behavior for rotation
           may cause significant error
 Rotational temperatures (Kelvin)      0.09288     0.02052     0.01940
 Rotational constants (GHZ):           1.93521     0.42767     0.40425
 Zero-point vibrational energy     737032.9 (Joules/Mol)
                                  176.15508 (Kcal/Mol)
 Warning -- explicit consideration of  17 degrees of freedom as
           vibrations may cause significant error
 Vibrational temperatures:     69.50    82.06   116.34   212.29   224.18
          (Kelvin)            292.63   326.49   382.64   445.52   514.47
                              571.27   614.68   638.46   655.71   770.39
                              829.18   850.46   953.67  1046.28  1170.55
                             1189.74  1207.08  1241.06  1294.64  1305.59
                             1319.33  1330.22  1342.45  1364.03  1406.75
                             1485.71  1510.61  1529.01  1534.37  1546.31
                             1559.71  1633.06  1650.31  1664.00  1672.55
                             1712.64  1744.71  1750.28  1780.04  1798.79
                             1852.18  1859.71  1904.77  1912.86  1934.66
                             1956.41  1961.70  1978.11  1995.26  1998.86
                             2010.16  2017.50  2036.32  2048.12  2059.92
                             2083.46  2121.54  2136.03  2145.92  2150.88
                             2152.67  2163.38  2169.65  2183.72  4374.72
                             4378.56  4386.72  4391.00  4408.53  4416.82
                             4417.06  4428.79  4430.19  4469.23  4481.85
                             4484.78  4490.27  4502.70  4507.20  4513.19
                             4514.84  4519.32

 Zero-point correction=                           0.280721 (Hartree/Particle)
 Thermal correction to Energy=                    0.292581
 Thermal correction to Enthalpy=                  0.293526
 Thermal correction to Gibbs Free Energy=         0.242212
 Sum of electronic and zero-point Energies=           -617.211897
 Sum of electronic and thermal Energies=              -617.200036
 Sum of electronic and thermal Enthalpies=            -617.199092
 Sum of electronic and thermal Free Energies=         -617.250406

                     E (Thermal)             CV                S
                      KCal/Mol        Cal/Mol-Kelvin    Cal/Mol-Kelvin
 Total                  183.598             46.760            107.999
 Electronic               0.000              0.000              0.000
 Translational            0.889              2.981             41.570
 Rotational               0.889              2.981             31.241
 Vibrational            181.820             40.798             35.187
 Vibration     1          0.595              1.978              4.886
 Vibration     2          0.596              1.975              4.557
 Vibration     3          0.600              1.962              3.870
 Vibration     4          0.617              1.905              2.704
 Vibration     5          0.620              1.896              2.600
 Vibration     6          0.639              1.835              2.102
 Vibration     7          0.651              1.800              1.903
 Vibration     8          0.672              1.736              1.622
 Vibration     9          0.699              1.655              1.364
 Vibration    10          0.733              1.560              1.133
 Vibration    11          0.764              1.476              0.974
 Vibration    12          0.789              1.411              0.868
 Vibration    13          0.803              1.375              0.815
 Vibration    14          0.814              1.348              0.779
 Vibration    15          0.890              1.172              0.575
 Vibration    16          0.933              1.083              0.492
 Vibration    17          0.949              1.051              0.465

 Optimization completed.
    -- Stationary point found.
 Normal termination of Gaussian 16 at Sun Nov  4 22:52:33 2018.
