 Gaussian 16, Revision A.03,
 Gaussian 16:  ES64L-G16RevA.03 25-Dec-2016

 ----------------------------------------------------------------------
 #M062X/6-311++G(2d,2p) opt=ModRedundant freq=noraman SCRF=(Solvent=Wat
 er)
 ----------------------------------------------------------------------

 ----------------------------
 D_a1-4_2SO_PHI.inp_extract_1
 ----------------------------
 Symbolic Z-matrix:
 Charge =  0 Multiplicity = 1

 SCF Done:  E(RM062X) =  -617.493438717     A.U. after   12 cycles
 SCF Done:  E(RM062X) =  -617.494992590     A.U. after   10 cycles
 SCF Done:  E(RM062X) =  -617.495105060     A.U. after   10 cycles
 SCF Done:  E(RM062X) =  -617.495119056     A.U. after    9 cycles
 SCF Done:  E(RM062X) =  -617.495121204     A.U. after    9 cycles
 SCF Done:  E(RM062X) =  -617.495121627     A.U. after    8 cycles
 SCF Done:  E(RM062X) =  -617.495121433     A.U. after    8 cycles
 SCF Done:  E(RM062X) =  -617.495121475     A.U. after    8 cycles
 SCF Done:  E(RM062X) =  -617.495121479     A.U. after    7 cycles
 Optimization completed.
    -- Stationary point found.
 Normal termination of Gaussian 16 at Sun Nov  4 22:06:13 2018.

 ----------------------------------------------------------------------
 #N Geom=AllCheck Guess=TCheck SCRF=Check GenChk RM062X/6-311++G(2d,2p)
  Freq
 ----------------------------------------------------------------------

 Structure from the checkpoint file:  "D_a1-4_2SO_PHI.inp_extract_1.chk"
 ----------------------------
 D_a1-4_2SO_PHI.inp_extract_1
 ----------------------------
 Charge =  0 Multiplicity = 1

                         Standard orientation:
 ---------------------------------------------------------------------
 Center     Atomic      Atomic             Coordinates (Angstroms)
 Number     Number       Type             X           Y           Z
 ---------------------------------------------------------------------
      1          6           0        1.033614   -0.116820   -0.568156
      2          6           0        3.764428   -0.182708    0.562902
      3          8           0       -1.954481    0.015285   -1.359004
      4          6           0        1.820750   -1.332677   -0.079834
      5          6           0        1.859370    1.153860   -0.334846
      6          8           0       -0.197292   -0.075071    0.149402
      7          6           0       -2.041204    1.327383    0.677959
      8          6           0       -2.856038    0.231432    1.362474
      9          6           0       -1.178764    0.746466   -0.431846
     10          6           0       -3.641326   -0.546086    0.307523
     11          6           0       -2.693548   -1.053382   -0.766581
     12          6           0        3.340053    0.826647   -0.511530
     13          8           0        2.670230   -0.988711    0.998026
     14          1           0        0.817521   -0.245572   -1.633606
     15          1           0        4.566239   -0.829152    0.194031
     16          1           0        4.117840    0.333741    1.453809
     17          1           0        1.130128   -2.092514    0.279366
     18          1           0        2.409042   -1.757080   -0.899353
     19          1           0        1.676069    1.489805    0.687592
     20          1           0        1.552240    1.951901   -1.008360
     21          1           0       -1.396448    1.851154    1.382977
     22          1           0       -2.714143    2.059627    0.227701
     23          1           0       -2.183980   -0.448088    1.890611
     24          1           0       -3.525801    0.667082    2.103078
     25          1           0       -0.713321    1.538283   -1.019721
     26          1           0       -4.169089   -1.391225    0.750565
     27          1           0       -4.386559    0.106600   -0.153726
     28          1           0       -3.231680   -1.525882   -1.585296
     29          1           0       -1.997669   -1.782554   -0.343198
     30          1           0        3.503278    0.415724   -1.509475
     31          1           0        3.954650    1.721442   -0.432782
 ---------------------------------------------------------------------

 SCF Done:  E(RM062X) =  -617.495121479     A.U. after    1 cycles

 The electronic state is 1-A.
 Alpha  occ. eigenvalues --  -19.62961 -19.62830 -19.62794 -10.63386 -10.58914
 Alpha  occ. eigenvalues --  -10.58100 -10.58065 -10.57632 -10.53447 -10.53307
 Alpha  occ. eigenvalues --  -10.52996 -10.52953 -10.52809  -1.19885  -1.16417
 Alpha  occ. eigenvalues --   -1.13231  -0.90736  -0.89637  -0.87191  -0.84324
 Alpha  occ. eigenvalues --   -0.75075  -0.74019  -0.72820  -0.71322  -0.64869
 Alpha  occ. eigenvalues --   -0.62634  -0.60044  -0.59186  -0.57839  -0.55598
 Alpha  occ. eigenvalues --   -0.54923  -0.53363  -0.52614  -0.50232  -0.49390
 Alpha  occ. eigenvalues --   -0.47053  -0.46418  -0.46168  -0.45272  -0.44988
 Alpha  occ. eigenvalues --   -0.43327  -0.42730  -0.42119  -0.41164  -0.39695
 Alpha  occ. eigenvalues --   -0.38288  -0.37221  -0.36329  -0.34198  -0.33362
 Alpha  occ. eigenvalues --   -0.32166
 Alpha virt. eigenvalues --   -0.00106   0.00764   0.00949   0.00972   0.02197
 Alpha virt. eigenvalues --    0.02400   0.02610   0.03355   0.03709   0.04369
 Alpha virt. eigenvalues --    0.04443   0.04617   0.05318   0.06004   0.06919

 Mulliken charges:
               1
     1  C   -0.115994
     2  C   -0.256714
     3  O   -0.297959
     4  C   -0.352558
     5  C   -0.173601
     6  O   -0.247605
     7  C   -0.308191
     8  C   -0.330391
     9  C   -0.076540
    10  C   -0.361043
    11  C   -0.144771
    12  C   -0.374134
    13  O   -0.315808
    14  H    0.241213
    15  H    0.172662
    16  H    0.176991
    17  H    0.215932
    18  H    0.176320
    19  H    0.205143
    20  H    0.154071
    21  H    0.160729
    22  H    0.181990
    23  H    0.179184
    24  H    0.182405
    25  H    0.285592
    26  H    0.168355
    27  H    0.164577
    28  H    0.204293
    29  H    0.134317
    30  H    0.189692
    31  H    0.161841
 Sum of Mulliken charges =  -0.00000

 Dipole moment (field-independent basis, Debye):
    X=              0.6247    Y=              1.3048    Z=             -1.1525  Tot=              1.8495
 Quadrupole moment (field-independent basis, Debye-Ang):
   XX=            -70.8757   YY=            -76.8410   ZZ=            -85.3123
   XY=              4.7290   XZ=             -8.1587   YZ=              3.1657

  Exact polarizability: 175.791   3.738 156.781  -0.152   1.604 150.478
 Approx polarizability: 147.074   2.130 141.504   0.630  -0.246 141.273

 ******    1 imaginary frequencies (negative Signs) ******

                      1                      2                      3
                      A                      A                      A
 Frequencies --     -3.6757                35.5123                57.6514
 Red. masses --      3.7798                 3.3415                 3.6221
 Frc consts  --      0.0000                 0.0025                 0.0071
 IR Inten    --      4.2327                 0.5700                 1.1509

                      4                      5                      6
                      A                      A                      A
 Frequencies --    110.5522               174.5116               207.6806
 Red. masses --      3.1245                 3.9310                 2.1235
 Frc consts  --      0.0225                 0.0705                 0.0540
 IR Inten    --      3.7529                 0.6780                 4.1378

                      7                      8                      9
                      A                      A                      A
 Frequencies --    236.3232               262.9237               307.7105
 Red. masses --      3.0304                 2.2415                 2.3219
 Frc consts  --      0.0997                 0.0913                 0.1295
 IR Inten    --      7.6379                 1.4813                 1.9417

                     10                     11                     12
                      A                      A                      A
 Frequencies --    371.0960               410.6274               424.0118
 Red. masses --      1.9419                 2.4813                 2.9371
 Frc consts  --      0.1576                 0.2465                 0.3111
 IR Inten    --      8.9242                 6.8247                11.0121

                     13                     14                     15
                      A                      A                      A
 Frequencies --    443.1973               470.7097               529.1402
 Red. masses --      3.2415                 3.6824                 2.6217
 Frc consts  --      0.3751                 0.4807                 0.4325
 IR Inten    --      2.6059                 3.8329                 2.8928

                     16                     17                     18
                      A                      A                      A
 Frequencies --    547.6725               597.3176               665.9704
 Red. masses --      3.2738                 2.8621                 2.3350
 Frc consts  --      0.5785                 0.6017                 0.6102
 IR Inten    --     11.6755                10.1989                10.4371

                     19                     20                     21
                      A                      A                      A
 Frequencies --    704.1961               819.8590               834.4646
 Red. masses --      2.7427                 2.0937                 1.5478
 Frc consts  --      0.8013                 0.8292                 0.6350
 IR Inten    --      1.9414                 8.0625                 0.7417

                     22                     23                     24
                      A                      A                      A
 Frequencies --    844.7831               867.4229               894.9607
 Red. masses --      3.2439                 1.8983                 2.3621
 Frc consts  --      1.3640                 0.8415                 1.1147
 IR Inten    --      9.1471                 6.0381                33.7121

                     25                     26                     27
                      A                      A                      A
 Frequencies --    902.6724               917.9579               922.7146
 Red. masses --      2.4096                 2.5284                 1.9944
 Frc consts  --      1.1568                 1.2553                 1.0005
 IR Inten    --      7.9382                 8.4620                66.9110

                     28                     29                     30
                      A                      A                      A
 Frequencies --    935.0789               950.9287               987.4390
 Red. masses --      2.1796                 1.5694                 1.8846
 Frc consts  --      1.1228                 0.8362                 1.0827
 IR Inten    --      9.2742                 3.0386                35.4445

                     31                     32                     33
                      A                      A                      A
 Frequencies --   1028.8356              1054.0438              1063.6394
 Red. masses --      2.2050                 2.5085                 1.5677
 Frc consts  --      1.3752                 1.6420                 1.0450
 IR Inten    --     46.6180               140.2541               106.2926

                     34                     35                     36
                      A                      A                      A
 Frequencies --   1068.2357              1072.6103              1087.3168
 Red. masses --      1.7799                 2.2641                 2.5697
 Frc consts  --      1.1967                 1.5347                 1.7899
 IR Inten    --     12.6699                27.3362               270.3917

                     37                     38                     39
                      A                      A                      A
 Frequencies --   1129.7968              1147.4903              1153.9674
 Red. masses --      2.1376                 3.9279                 2.4004
 Frc consts  --      1.6076                 3.0473                 1.8833
 IR Inten    --    121.4111                63.7560                11.6182

                     40                     41                     42
                      A                      A                      A
 Frequencies --   1166.8588              1180.9565              1211.7253
 Red. masses --      3.9218                 2.7539                 1.4048
 Frc consts  --      3.1461                 2.2629                 1.2153
 IR Inten    --    154.4074                20.0828                15.1585

                     43                     44                     45
                      A                      A                      A
 Frequencies --   1217.8375              1234.1664              1250.9403
 Red. masses --      1.3479                 1.6344                 1.4713
 Frc consts  --      1.1779                 1.4667                 1.3566
 IR Inten    --      2.7747                66.2611                45.9530

                     46                     47                     48
                      A                      A                      A
 Frequencies --   1286.7723              1288.4131              1317.5303
 Red. masses --      1.1974                 1.2117                 1.1479
 Frc consts  --      1.1681                 1.1851                 1.1740
 IR Inten    --     25.6506                 6.7222                 7.0243

                     49                     50                     51
                      A                      A                      A
 Frequencies --   1328.0165              1340.5979              1357.7365
 Red. masses --      1.1801                 1.2598                 1.3351
 Frc consts  --      1.2262                 1.3340                 1.4501
 IR Inten    --      9.2200                 6.5254                11.3246

                     52                     53                     54
                      A                      A                      A
 Frequencies --   1372.2349              1373.6553              1382.9271
 Red. masses --      1.5604                 1.3091                 1.3333
 Frc consts  --      1.7312                 1.4554                 1.5024
 IR Inten    --     15.3999                 9.6449                26.0236

                     55                     56                     57
                      A                      A                      A
 Frequencies --   1387.6705              1393.1139              1398.2044
 Red. masses --      1.4747                 1.7218                 1.3307
 Frc consts  --      1.6731                 1.9688                 1.5328
 IR Inten    --      2.3889                18.5829                 0.4244

                     58                     59                     60
                      A                      A                      A
 Frequencies --   1406.3022              1423.1057              1426.2940
 Red. masses --      1.3393                 1.3838                 1.4078
 Frc consts  --      1.5605                 1.6511                 1.6874
 IR Inten    --     16.3321                23.0325                 0.9889

                     61                     62                     63
                      A                      A                      A
 Frequencies --   1437.8744              1475.3802              1482.0365
 Red. masses --      1.3090                 1.1069                 1.0860
 Frc consts  --      1.5945                 1.4196                 1.4054
 IR Inten    --      6.1173                 4.7807                 8.1306

                     64                     65                     66
                      A                      A                      A
 Frequencies --   1489.9140              1494.6474              1496.1002
 Red. masses --      1.0992                 1.1074                 1.0918
 Frc consts  --      1.4377                 1.4575                 1.4399
 IR Inten    --      2.3731                13.0414                11.1162

                     67                     68                     69
                      A                      A                      A
 Frequencies --   1503.9586              1509.4214              1518.0561
 Red. masses --      1.0770                 1.0941                 1.0986
 Frc consts  --      1.4353                 1.4687                 1.4917
 IR Inten    --      7.1496                 4.1453                 3.7921

                     70                     71                     72
                      A                      A                      A
 Frequencies --   3037.5237              3042.3208              3052.4702
 Red. masses --      1.0746                 1.0681                 1.0786
 Frc consts  --      5.8414                 5.8244                 5.9211
 IR Inten    --     24.8531                78.3884                87.9333

                     73                     74                     75
                      A                      A                      A
 Frequencies --   3056.3502              3063.5982              3071.0069
 Red. masses --      1.0688                 1.0626                 1.0636
 Frc consts  --      5.8826                 5.8762                 5.9101
 IR Inten    --     38.1524                45.0615                28.4161

                     76                     77                     78
                      A                      A                      A
 Frequencies --   3073.4462              3075.0461              3080.3876
 Red. masses --      1.0684                 1.0618                 1.0613
 Frc consts  --      5.9464                 5.9155                 5.9334
 IR Inten    --     14.3770                24.7326                59.0800

                     79                     80                     81
                      A                      A                      A
 Frequencies --   3099.1401              3113.0143              3116.3450
 Red. masses --      1.0864                 1.0978                 1.0959
 Frc consts  --      6.1478                 6.2682                 6.2706
 IR Inten    --     54.9287                37.4299                17.1708

                     82                     83                     84
                      A                      A                      A
 Frequencies --   3118.3484              3127.0641              3133.3101
 Red. masses --      1.1019                 1.1039                 1.1015
 Frc consts  --      6.3133                 6.3597                 6.3718
 IR Inten    --     61.1959                45.4378                34.3513

                     85                     86                     87
                      A                      A                      A
 Frequencies --   3134.3547              3134.8786              3141.0321
 Red. masses --      1.0999                 1.0991                 1.0968
 Frc consts  --      6.3662                 6.3641                 6.3756
 IR Inten    --     65.8064                52.9509                18.9620

 - Thermochemistry -
 -------------------
 Temperature   298.150 Kelvin.  Pressure   1.00000 Atm.
 Atom     1 has atomic number  6 and mass  12.00000

 Molecular mass:   186.12559 amu.
 Principal axes and moments of inertia in atomic units:
                           1         2         3
     Eigenvalues --   939.694334508.323384593.01095
           X            0.99988   0.00950  -0.01213
           Y           -0.00772   0.99028   0.13885
           Z            0.01333  -0.13874   0.99024
 This molecule is an asymmetric top.
 Rotational symmetry number  1.
 Warning -- assumption of classical behavior for rotation
           may cause significant error
 Rotational temperatures (Kelvin)      0.09217     0.01921     0.01886
 Rotational constants (GHZ):           1.92056     0.40031     0.39293
    1 imaginary frequencies ignored.
 Zero-point vibrational energy     736080.8 (Joules/Mol)
                                  175.92754 (Kcal/Mol)
 Warning -- explicit consideration of  16 degrees of freedom as
           vibrations may cause significant error
 Vibrational temperatures:     51.09    82.95   159.06   251.08   298.81
          (Kelvin)            340.02   378.29   442.73   533.92   590.80
                              610.06   637.66   677.25   761.31   787.98
                              859.41   958.18  1013.18  1179.59  1200.61
                             1215.45  1248.03  1287.65  1298.74  1320.74
                             1327.58  1345.37  1368.17  1420.70  1480.26
                             1516.53  1530.34  1536.95  1543.25  1564.41
                             1625.53  1650.98  1660.30  1678.85  1699.13
                             1743.40  1752.20  1775.69  1799.82  1851.38
                             1853.74  1895.63  1910.72  1928.82  1953.48
                             1974.34  1976.38  1989.72  1996.55  2004.38
                             2011.70  2023.36  2047.53  2052.12  2068.78
                             2122.74  2132.32  2143.65  2150.46  2152.55
                             2163.86  2171.72  2184.14  4370.32  4377.22
                             4391.82  4397.41  4407.83  4418.49  4422.00
                             4424.31  4431.99  4458.97  4478.93  4483.73
                             4486.61  4499.15  4508.13  4509.64  4510.39
                             4519.24

 Zero-point correction=                           0.280358 (Hartree/Particle)
 Thermal correction to Energy=                    0.291480
 Thermal correction to Enthalpy=                  0.292424
 Thermal correction to Gibbs Free Energy=         0.242530
 Sum of electronic and zero-point Energies=           -617.214763
 Sum of electronic and thermal Energies=              -617.203642
 Sum of electronic and thermal Enthalpies=            -617.202698
 Sum of electronic and thermal Free Energies=         -617.252592

                     E (Thermal)             CV                S
                      KCal/Mol        Cal/Mol-Kelvin    Cal/Mol-Kelvin
 Total                  182.906             44.805            105.011
 Electronic               0.000              0.000              0.000
 Translational            0.889              2.981             41.570
 Rotational               0.889              2.981             31.343
 Vibrational            181.129             38.843             32.099
 Vibration     1          0.594              1.982              5.495
 Vibration     2          0.596              1.974              4.536
 Vibration     3          0.606              1.941              3.259
 Vibration     4          0.627              1.874              2.386
 Vibration     5          0.641              1.829              2.064
 Vibration     6          0.655              1.785              1.830
 Vibration     7          0.670              1.741              1.642
 Vibration     8          0.698              1.659              1.375
 Vibration     9          0.743              1.532              1.075
 Vibration    10          0.775              1.447              0.924
 Vibration    11          0.786              1.418              0.878
 Vibration    12          0.803              1.376              0.817
 Vibration    13          0.828              1.315              0.736
 Vibration    14          0.884              1.186              0.589
 Vibration    15          0.903              1.145              0.549
 Vibration    16          0.955              1.037              0.454

 Optimization completed.
    -- Stationary point found.
 Normal termination of Gaussian 16 at Sun Nov  4 22:57:54 2018.
