 Gaussian 16, Revision A.03,
 Gaussian 16:  ES64L-G16RevA.03 25-Dec-2016

 ----------------------------------------------------------------------
 #M062X/6-311++G(2d,2p) opt=ModRedundant freq=noraman SCRF=(Solvent=Wat
 er)
 ----------------------------------------------------------------------

 -----------------------------
 D_a1-4_2SO_PHI.inp_extract_13
 -----------------------------
 Symbolic Z-matrix:
 Charge =  0 Multiplicity = 1

 SCF Done:  E(RM062X) =  -617.482600562     A.U. after   12 cycles
 SCF Done:  E(RM062X) =  -617.483058798     A.U. after   11 cycles
 SCF Done:  E(RM062X) =  -617.484121491     A.U. after   11 cycles
 SCF Done:  E(RM062X) =  -617.484552191     A.U. after   10 cycles
 SCF Done:  E(RM062X) =  -617.484650634     A.U. after   10 cycles
 SCF Done:  E(RM062X) =  -617.484661367     A.U. after    9 cycles
 SCF Done:  E(RM062X) =  -617.484663879     A.U. after    8 cycles
 SCF Done:  E(RM062X) =  -617.484664713     A.U. after    8 cycles
 SCF Done:  E(RM062X) =  -617.484665279     A.U. after    8 cycles
 SCF Done:  E(RM062X) =  -617.484665840     A.U. after    8 cycles
 SCF Done:  E(RM062X) =  -617.484666194     A.U. after    7 cycles
 Optimization completed.
    -- Stationary point found.
 Normal termination of Gaussian 16 at Sun Nov  4 22:12:27 2018.

 ----------------------------------------------------------------------
 #N Geom=AllCheck Guess=TCheck SCRF=Check GenChk RM062X/6-311++G(2d,2p)
  Freq
 ----------------------------------------------------------------------

 Structure from the checkpoint file:  "D_a1-4_2SO_PHI.inp_extract_13.chk"
 -----------------------------
 D_a1-4_2SO_PHI.inp_extract_13
 -----------------------------
 Charge =  0 Multiplicity = 1

                         Standard orientation:
 ---------------------------------------------------------------------
 Center     Atomic      Atomic             Coordinates (Angstroms)
 Number     Number       Type             X           Y           Z
 ---------------------------------------------------------------------
      1          6           0       -0.721437    0.051542   -0.044762
      2          6           0       -3.652807   -0.000640    0.335058
      3          8           0        2.227542    0.681308   -1.173202
      4          6           0       -1.612849   -1.163016    0.262289
      5          6           0       -1.602986    1.276004   -0.274816
      6          8           0        0.054912   -0.161504   -1.221227
      7          6           0        1.845688   -1.443331   -0.023027
      8          6           0        2.235925   -0.803165    1.314691
      9          6           0        1.426264   -0.478488   -1.141893
     10          6           0        3.093720    0.437235    1.079168
     11          6           0        2.416740    1.348682    0.072505
     12          6           0       -2.789981    1.221049    0.682062
     13          8           0       -2.895136   -1.017269   -0.317472
     14          1           0       -0.075529    0.231204    0.810375
     15          1           0       -4.118961   -0.416630    1.233126
     16          1           0       -4.437777    0.272244   -0.367984
     17          1           0       -1.175085   -2.062610   -0.163958
     18          1           0       -1.706042   -1.300594    1.345612
     19          1           0       -1.957907    1.247808   -1.306246
     20          1           0       -1.019380    2.186978   -0.148913
     21          1           0        1.069410   -2.196296    0.107626
     22          1           0        2.723688   -1.964273   -0.408995
     23          1           0        1.357010   -0.532579    1.899872
     24          1           0        2.781796   -1.536656    1.907515
     25          1           0        1.624831   -0.956822   -2.098834
     26          1           0        3.263346    0.977474    2.010524
     27          1           0        4.068422    0.147054    0.680278
     28          1           0        3.033505    2.215741   -0.153561
     29          1           0        1.458663    1.715117    0.454334
     30          1           0       -2.424896    1.152827    1.708628
     31          1           0       -3.393286    2.124508    0.618160
 ---------------------------------------------------------------------

 SCF Done:  E(RM062X) =  -617.484666194     A.U. after    1 cycles

 The electronic state is 1-A.
 Alpha  occ. eigenvalues --  -19.63006 -19.62955 -19.62864 -10.63884 -10.58945
 Alpha  occ. eigenvalues --  -10.58136 -10.58077 -10.58074 -10.53752 -10.53513
 Alpha  occ. eigenvalues --  -10.53389 -10.53291 -10.53119  -1.19541  -1.16460
 Alpha  occ. eigenvalues --   -1.13403  -0.90619  -0.90400  -0.87093  -0.84740
 Alpha  occ. eigenvalues --   -0.75305  -0.74730  -0.73799  -0.70569  -0.65342
 Alpha  occ. eigenvalues --   -0.63233  -0.59593  -0.58806  -0.57519  -0.57137
 Alpha  occ. eigenvalues --   -0.54628  -0.53191  -0.52935  -0.50557  -0.50080
 Alpha  occ. eigenvalues --   -0.48945  -0.46396  -0.45555  -0.45099  -0.44960
 Alpha  occ. eigenvalues --   -0.44086  -0.42730  -0.41300  -0.40831  -0.39879
 Alpha  occ. eigenvalues --   -0.38474  -0.36975  -0.36683  -0.35458  -0.33428
 Alpha  occ. eigenvalues --   -0.31575
 Alpha virt. eigenvalues --   -0.00268   0.00646   0.00854   0.01153   0.02265
 Alpha virt. eigenvalues --    0.02605   0.02715   0.03278   0.03514   0.04588
 Alpha virt. eigenvalues --    0.04733   0.04954   0.05817   0.05874   0.07363

 Mulliken charges:
               1
     1  C   -0.202959
     2  C   -0.224721
     3  O   -0.289007
     4  C   -0.368141
     5  C   -0.085641
     6  O   -0.254682
     7  C   -0.200585
     8  C   -0.369370
     9  C   -0.192747
    10  C   -0.312488
    11  C   -0.244841
    12  C   -0.337321
    13  O   -0.334909
    14  H    0.223059
    15  H    0.163696
    16  H    0.176920
    17  H    0.223192
    18  H    0.190883
    19  H    0.199674
    20  H    0.158009
    21  H    0.160662
    22  H    0.237953
    23  H    0.187486
    24  H    0.197887
    25  H    0.254941
    26  H    0.165970
    27  H    0.174084
    28  H    0.226877
    29  H    0.118186
    30  H    0.177593
    31  H    0.180339
 Sum of Mulliken charges =   0.00000

 Dipole moment (field-independent basis, Debye):
    X=              0.8573    Y=              0.4558    Z=              4.9802  Tot=              5.0740
 Quadrupole moment (field-independent basis, Debye-Ang):
   XX=            -78.4364   YY=            -78.0391   ZZ=            -84.1359
   XY=             -7.8665   XZ=              0.0731   YZ=              1.6048

  Exact polarizability: 172.833  -1.170 157.542  -0.936   1.071 152.560
 Approx polarizability: 147.284  -0.878 141.191  -0.771   2.121 142.709

                      1                      2                      3
                      A                      A                      A
 Frequencies --     21.6212                36.2060                62.2165
 Red. masses --      4.0309                 3.9405                 3.1121
 Frc consts  --      0.0011                 0.0030                 0.0071
 IR Inten    --      3.1768                 1.4369                 0.3798

                      4                      5                      6
                      A                      A                      A
 Frequencies --    104.6778               173.2290               214.3836
 Red. masses --      3.1810                 2.7681                 2.7039
 Frc consts  --      0.0205                 0.0489                 0.0732
 IR Inten    --      1.8998                 3.9938                 2.6659

                      7                      8                      9
                      A                      A                      A
 Frequencies --    241.6891               277.5762               329.0027
 Red. masses --      2.2881                 2.8469                 2.4546
 Frc consts  --      0.0787                 0.1292                 0.1565
 IR Inten    --      3.8556                 1.7194                 5.9405

                     10                     11                     12
                      A                      A                      A
 Frequencies --    347.0612               371.1987               436.4798
 Red. masses --      2.0291                 2.3464                 3.3385
 Frc consts  --      0.1440                 0.1905                 0.3747
 IR Inten    --      2.0926                 8.2927                 1.0602

                     13                     14                     15
                      A                      A                      A
 Frequencies --    449.8158               450.9580               510.6676
 Red. masses --      3.3532                 3.2555                 3.0879
 Frc consts  --      0.3997                 0.3901                 0.4745
 IR Inten    --      7.7136                 4.3643                 6.7535

                     16                     17                     18
                      A                      A                      A
 Frequencies --    552.3229               587.0256               659.4548
 Red. masses --      2.8176                 2.7342                 2.2630
 Frc consts  --      0.5064                 0.5551                 0.5798
 IR Inten    --     11.8578                 3.3609                16.8737

                     19                     20                     21
                      A                      A                      A
 Frequencies --    748.7292               775.1116               821.7045
 Red. masses --      3.1572                 2.4665                 1.7219
 Frc consts  --      1.0428                 0.8731                 0.6850
 IR Inten    --      6.8457                 8.3609                12.6337

                     22                     23                     24
                      A                      A                      A
 Frequencies --    839.2305               860.1940               895.2934
 Red. masses --      2.3495                 1.9300                 2.1831
 Frc consts  --      0.9750                 0.8414                 1.0310
 IR Inten    --      5.9599                 3.7788                 7.7412

                     25                     26                     27
                      A                      A                      A
 Frequencies --    896.6846               914.5617               920.3805
 Red. masses --      2.6480                 2.5286                 2.2225
 Frc consts  --      1.2544                 1.2461                 1.1093
 IR Inten    --     56.4600                16.8598                44.1956

                     28                     29                     30
                      A                      A                      A
 Frequencies --    933.8020               953.4179               973.2266
 Red. masses --      1.7504                 1.9291                 1.7733
 Frc consts  --      0.8993                 1.0332                 0.9896
 IR Inten    --     18.7159                 2.0213                23.5357

                     31                     32                     33
                      A                      A                      A
 Frequencies --   1021.9308              1050.8513              1065.2891
 Red. masses --      2.2235                 2.3919                 1.8337
 Frc consts  --      1.3681                 1.5562                 1.2261
 IR Inten    --     19.3250               106.0668               147.1113

                     34                     35                     36
                      A                      A                      A
 Frequencies --   1068.0264              1073.5824              1093.1375
 Red. masses --      1.8679                 2.1052                 2.0579
 Frc consts  --      1.2554                 1.4296                 1.4489
 IR Inten    --     25.9734                99.5444               151.1292

                     37                     38                     39
                      A                      A                      A
 Frequencies --   1128.1212              1146.4849              1148.8827
 Red. masses --      1.8849                 3.7110                 2.9807
 Frc consts  --      1.4133                 2.8740                 2.3181
 IR Inten    --     13.7346               125.9200                99.9896

                     40                     41                     42
                      A                      A                      A
 Frequencies --   1169.8841              1189.1496              1216.0406
 Red. masses --      2.5294                 3.2588                 1.4459
 Frc consts  --      2.0397                 2.7150                 1.2597
 IR Inten    --      1.2698               129.7904                 1.3388

                     43                     44                     45
                      A                      A                      A
 Frequencies --   1221.1300              1240.5692              1255.6314
 Red. masses --      1.4952                 1.6774                 1.4796
 Frc consts  --      1.3137                 1.5210                 1.3744
 IR Inten    --     67.2710                59.2329                40.8050

                     46                     47                     48
                      A                      A                      A
 Frequencies --   1290.2389              1299.5461              1316.8908
 Red. masses --      1.1906                 1.2362                 1.2077
 Frc consts  --      1.1678                 1.2300                 1.2339
 IR Inten    --     29.0337                37.4551                15.2911

                     49                     50                     51
                      A                      A                      A
 Frequencies --   1332.6704              1342.2123              1358.9280
 Red. masses --      1.1872                 1.2972                 1.4510
 Frc consts  --      1.2423                 1.3768                 1.5788
 IR Inten    --     12.4870                 0.5956                 0.6083

                     52                     53                     54
                      A                      A                      A
 Frequencies --   1365.7302              1375.0824              1385.6512
 Red. masses --      1.3384                 1.3696                 1.3586
 Frc consts  --      1.4708                 1.5258                 1.5369
 IR Inten    --      2.9838                 4.7977                 6.9675

                     55                     56                     57
                      A                      A                      A
 Frequencies --   1389.9228              1392.4737              1402.9249
 Red. masses --      1.3163                 1.5402                 1.3674
 Frc consts  --      1.4982                 1.7596                 1.5856
 IR Inten    --      2.9531                12.9949                 0.6110

                     58                     59                     60
                      A                      A                      A
 Frequencies --   1415.4578              1422.2551              1426.3812
 Red. masses --      1.3811                 1.3524                 1.3685
 Frc consts  --      1.6303                 1.6118                 1.6405
 IR Inten    --     13.9695                27.0107                 4.5569

                     61                     62                     63
                      A                      A                      A
 Frequencies --   1445.9071              1476.4496              1483.4172
 Red. masses --      1.1914                 1.0965                 1.0892
 Frc consts  --      1.4675                 1.4084                 1.4121
 IR Inten    --      2.9474                 6.4712                13.4697

                     64                     65                     66
                      A                      A                      A
 Frequencies --   1490.5225              1495.4937              1504.0230
 Red. masses --      1.0961                 1.0928                 1.0788
 Frc consts  --      1.4347                 1.4401                 1.4379
 IR Inten    --      2.3269                 9.0325                 7.2979

                     67                     68                     69
                      A                      A                      A
 Frequencies --   1515.5349              1518.0826              1526.2636
 Red. masses --      1.0926                 1.0980                 1.0909
 Frc consts  --      1.4786                 1.4909                 1.4972
 IR Inten    --     13.6836                 3.5538                 4.5263

                     70                     71                     72
                      A                      A                      A
 Frequencies --   3030.0050              3041.6537              3047.4199
 Red. masses --      1.0703                 1.0682                 1.0700
 Frc consts  --      5.7896                 5.8227                 5.8546
 IR Inten    --     65.1013                89.5931                57.6527

                     73                     74                     75
                      A                      A                      A
 Frequencies --   3067.2794              3074.0635              3077.3621
 Red. masses --      1.0632                 1.0686                 1.0675
 Frc consts  --      5.8934                 5.9498                 5.9565
 IR Inten    --     38.5648                26.6184                11.9547

                     76                     77                     78
                      A                      A                      A
 Frequencies --   3082.0596              3082.9132              3113.1548
 Red. masses --      1.0598                 1.0615                 1.0980
 Frc consts  --      5.9316                 5.9442                 6.2700
 IR Inten    --     47.7023                21.6891                46.4781

                     79                     80                     81
                      A                      A                      A
 Frequencies --   3118.2884              3118.3941              3121.5833
 Red. masses --      1.0953                 1.0871                 1.1015
 Frc consts  --      6.2750                 6.2286                 6.3237
 IR Inten    --     14.0545                55.2400                46.6295

                     82                     83                     84
                      A                      A                      A
 Frequencies --   3126.8241              3130.6302              3131.2455
 Red. masses --      1.1006                 1.0996                 1.0982
 Frc consts  --      6.3401                 6.3496                 6.3439
 IR Inten    --      6.7087                35.0417                87.0637

                     85                     86                     87
                      A                      A                      A
 Frequencies --   3136.2245              3144.3344              3156.0180
 Red. masses --      1.0994                 1.0948                 1.0849
 Frc consts  --      6.3709                 6.3771                 6.3667
 IR Inten    --     61.6208                14.5431                46.2848

 - Thermochemistry -
 -------------------
 Temperature   298.150 Kelvin.  Pressure   1.00000 Atm.
 Atom     1 has atomic number  6 and mass  12.00000

 Molecular mass:   186.12559 amu.
 Principal axes and moments of inertia in atomic units:
                           1         2         3
     Eigenvalues --  1105.368593932.989874094.35021
           X            0.99990  -0.01354   0.00444
           Y            0.01348   0.99981   0.01385
           Z           -0.00463  -0.01378   0.99989
 This molecule is an asymmetric top.
 Rotational symmetry number  1.
 Warning -- assumption of classical behavior for rotation
           may cause significant error
 Rotational temperatures (Kelvin)      0.07836     0.02202     0.02115
 Rotational constants (GHZ):           1.63271     0.45887     0.44079
 Zero-point vibrational energy     737008.2 (Joules/Mol)
                                  176.14919 (Kcal/Mol)
 Warning -- explicit consideration of  17 degrees of freedom as
           vibrations may cause significant error
 Vibrational temperatures:     31.11    52.09    89.52   150.61   249.24
          (Kelvin)            308.45   347.74   399.37   473.36   499.34
                              534.07   628.00   647.18   648.83   734.74
                              794.67   844.60   948.81  1077.25  1115.21
                             1182.25  1207.47  1237.63  1288.13  1290.13
                             1315.85  1324.22  1343.53  1371.76  1400.26
                             1470.33  1511.94  1532.71  1536.65  1544.65
                             1572.78  1623.11  1649.54  1652.99  1683.20
                             1710.92  1749.61  1756.93  1784.90  1806.57
                             1856.37  1869.76  1894.71  1917.42  1931.14
                             1955.19  1964.98  1978.44  1993.64  1999.79
                             2003.46  2018.50  2036.53  2046.31  2052.24
                             2080.34  2124.28  2134.31  2144.53  2151.68
                             2163.95  2180.52  2184.18  2195.95  4359.50
                             4376.26  4384.56  4413.13  4422.89  4427.64
                             4434.40  4435.62  4479.14  4486.52  4486.67
                             4491.26  4498.80  4504.28  4505.16  4512.33
                             4524.00  4540.81

 Zero-point correction=                           0.280712 (Hartree/Particle)
 Thermal correction to Energy=                    0.292755
 Thermal correction to Enthalpy=                  0.293700
 Thermal correction to Gibbs Free Energy=         0.240792
 Sum of electronic and zero-point Energies=           -617.203955
 Sum of electronic and thermal Energies=              -617.191911
 Sum of electronic and thermal Enthalpies=            -617.190967
 Sum of electronic and thermal Free Energies=         -617.243874

                     E (Thermal)             CV                S
                      KCal/Mol        Cal/Mol-Kelvin    Cal/Mol-Kelvin
 Total                  183.707             46.933            111.354
 Electronic               0.000              0.000              0.000
 Translational            0.889              2.981             41.570
 Rotational               0.889              2.981             31.254
 Vibrational            181.929             40.972             38.530
 Vibration     1          0.593              1.985              6.479
 Vibration     2          0.594              1.982              5.457
 Vibration     3          0.597              1.972              4.386
 Vibration     4          0.605              1.945              3.365
 Vibration     5          0.627              1.875              2.400
 Vibration     6          0.644              1.819              2.006
 Vibration     7          0.658              1.776              1.790
 Vibration     8          0.679              1.715              1.549
 Vibration     9          0.712              1.618              1.265
 Vibration    10          0.725              1.581              1.179
 Vibration    11          0.743              1.531              1.075
 Vibration    12          0.797              1.391              0.838
 Vibration    13          0.809              1.361              0.796
 Vibration    14          0.810              1.359              0.793
 Vibration    15          0.866              1.226              0.632
 Vibration    16          0.908              1.135              0.539
 Vibration    17          0.944              1.059              0.473

 Optimization completed.
    -- Stationary point found.
 Normal termination of Gaussian 16 at Sun Nov  4 23:11:58 2018.
