 Gaussian 16, Revision A.03,
 Gaussian 16:  ES64L-G16RevA.03 25-Dec-2016

 ----------------------------------------------------------------------
 #M062X/6-311++G(2d,2p) opt=ModRedundant freq=noraman SCRF=(Solvent=Wat
 er)
 ----------------------------------------------------------------------

 ----------------------------
 D_a1-4_2SO_PHI.inp_extract_4
 ----------------------------
 Symbolic Z-matrix:
 Charge =  0 Multiplicity = 1

 SCF Done:  E(RM062X) =  -617.490531285     A.U. after   12 cycles
 SCF Done:  E(RM062X) =  -617.492177540     A.U. after   10 cycles
 SCF Done:  E(RM062X) =  -617.492380877     A.U. after   10 cycles
 SCF Done:  E(RM062X) =  -617.492430898     A.U. after   10 cycles
 SCF Done:  E(RM062X) =  -617.492440267     A.U. after    9 cycles
 SCF Done:  E(RM062X) =  -617.492443250     A.U. after    8 cycles
 SCF Done:  E(RM062X) =  -617.492443576     A.U. after    8 cycles
 SCF Done:  E(RM062X) =  -617.492443604     A.U. after    7 cycles
 Optimization completed.
    -- Stationary point found.
 Normal termination of Gaussian 16 at Sun Nov  4 21:58:10 2018.

 ----------------------------------------------------------------------
 #N Geom=AllCheck Guess=TCheck SCRF=Check GenChk RM062X/6-311++G(2d,2p)
  Freq
 ----------------------------------------------------------------------

 Structure from the checkpoint file:  "D_a1-4_2SO_PHI.inp_extract_4.chk"
 ----------------------------
 D_a1-4_2SO_PHI.inp_extract_4
 ----------------------------
 Charge =  0 Multiplicity = 1

                         Standard orientation:
 ---------------------------------------------------------------------
 Center     Atomic      Atomic             Coordinates (Angstroms)
 Number     Number       Type             X           Y           Z
 ---------------------------------------------------------------------
      1          6           0        1.093677   -0.376187   -0.679119
      2          6           0        3.648024    0.137292    0.713643
      3          8           0       -2.308630   -0.776090   -1.082959
      4          6           0        1.993550   -1.383785    0.041760
      5          6           0        1.651163    1.034792   -0.473837
      6          8           0       -0.225397   -0.526126   -0.168877
      7          6           0       -1.702340    1.402160   -0.232376
      8          6           0       -2.392510    1.092299    1.093968
      9          6           0       -1.239052    0.119679   -0.914498
     10          6           0       -3.512620    0.081880    0.855574
     11          6           0       -2.955707   -1.136502    0.139877
     12          6           0        3.176070    0.964055   -0.490708
     13          8           0        2.651748   -0.788963    1.143172
     14          1           0        1.083518   -0.618974   -1.747777
     15          1           0        4.568754   -0.404367    0.477696
     16          1           0        3.834666    0.782119    1.570596
     17          1           0        1.387846   -2.200872    0.426684
     18          1           0        2.731039   -1.795245   -0.654526
     19          1           0        1.313282    1.398073    0.498528
     20          1           0        1.274207    1.715647   -1.236254
     21          1           0       -0.849615    2.064228   -0.093081
     22          1           0       -2.402870    1.899548   -0.906945
     23          1           0       -1.665452    0.672837    1.792836
     24          1           0       -2.781614    2.007164    1.539392
     25          1           0       -0.871980    0.323438   -1.923144
     26          1           0       -3.971213   -0.230658    1.794227
     27          1           0       -4.292808    0.533751    0.238294
     28          1           0       -3.743336   -1.831532   -0.141980
     29          1           0       -2.244581   -1.662027    0.782462
     30          1           0        3.506904    0.505419   -1.424444
     31          1           0        3.619961    1.956777   -0.448957
 ---------------------------------------------------------------------

 SCF Done:  E(RM062X) =  -617.492443604     A.U. after    1 cycles

 The electronic state is 1-A.
 Alpha  occ. eigenvalues --  -19.62981 -19.62912 -19.62871 -10.63603 -10.59133
 Alpha  occ. eigenvalues --  -10.58136 -10.58099 -10.57746 -10.53472 -10.53367
 Alpha  occ. eigenvalues --  -10.52975 -10.52920 -10.52836  -1.19892  -1.16507
 Alpha  occ. eigenvalues --   -1.13381  -0.90434  -0.89907  -0.87194  -0.84504
 Alpha  occ. eigenvalues --   -0.75122  -0.73762  -0.73075  -0.71524  -0.64979
 Alpha  occ. eigenvalues --   -0.62980  -0.59985  -0.59194  -0.57228  -0.56129
 Alpha  occ. eigenvalues --   -0.55254  -0.53249  -0.52561  -0.50465  -0.49281
 Alpha  occ. eigenvalues --   -0.47244  -0.46626  -0.46209  -0.45118  -0.44851
 Alpha  occ. eigenvalues --   -0.44040  -0.42514  -0.41958  -0.40893  -0.40049
 Alpha  occ. eigenvalues --   -0.38186  -0.37426  -0.36957  -0.33732  -0.33359
 Alpha  occ. eigenvalues --   -0.32004
 Alpha virt. eigenvalues --   -0.00122   0.00770   0.00848   0.01068   0.02248
 Alpha virt. eigenvalues --    0.02487   0.02636   0.03421   0.03575   0.04442
 Alpha virt. eigenvalues --    0.04553   0.04738   0.05560   0.05735   0.07052

 Mulliken charges:
               1
     1  C   -0.137218
     2  C   -0.257366
     3  O   -0.303354
     4  C   -0.326386
     5  C   -0.101463
     6  O   -0.295865
     7  C   -0.152469
     8  C   -0.339317
     9  C   -0.118907
    10  C   -0.370074
    11  C   -0.205613
    12  C   -0.479929
    13  O   -0.311375
    14  H    0.217513
    15  H    0.174264
    16  H    0.177061
    17  H    0.198019
    18  H    0.180253
    19  H    0.211291
    20  H    0.183294
    21  H    0.183080
    22  H    0.194963
    23  H    0.183155
    24  H    0.171774
    25  H    0.270578
    26  H    0.165841
    27  H    0.165645
    28  H    0.214897
    29  H    0.158831
    30  H    0.191054
    31  H    0.157824
 Sum of Mulliken charges =  -0.00000

 Dipole moment (field-independent basis, Debye):
    X=              1.2681    Y=              2.4904    Z=             -1.2402  Tot=              3.0575
 Quadrupole moment (field-independent basis, Debye-Ang):
   XX=            -72.7263   YY=            -78.5893   ZZ=            -83.3227
   XY=              1.2094   XZ=             -9.5991   YZ=              0.0120

  Exact polarizability: 175.632   3.556 156.391  -1.779  -0.637 151.412
 Approx polarizability: 147.747   2.495 140.354  -0.701  -0.843 142.466

                      1                      2                      3
                      A                      A                      A
 Frequencies --     29.6220                60.3770                81.2068
 Red. masses --      3.5218                 3.7118                 3.7385
 Frc consts  --      0.0018                 0.0080                 0.0145
 IR Inten    --      2.6550                 2.3834                 1.6329

                      4                      5                      6
                      A                      A                      A
 Frequencies --    108.9074               195.2559               208.5067
 Red. masses --      2.8437                 3.1977                 2.3273
 Frc consts  --      0.0199                 0.0718                 0.0596
 IR Inten    --      2.6424                 0.1301                 4.2425

                      7                      8                      9
                      A                      A                      A
 Frequencies --    238.2112               265.1478               313.2853
 Red. masses --      2.7925                 2.8933                 2.2023
 Frc consts  --      0.0934                 0.1198                 0.1274
 IR Inten    --      3.5755                 0.1748                 2.8883

                     10                     11                     12
                      A                      A                      A
 Frequencies --    373.1185               381.7462               430.7026
 Red. masses --      2.0272                 2.6956                 2.7539
 Frc consts  --      0.1663                 0.2315                 0.3010
 IR Inten    --      4.0939                16.1578                10.6063

                     13                     14                     15
                      A                      A                      A
 Frequencies --    444.3024               476.3929               520.1726
 Red. masses --      3.7311                 2.9281                 2.7542
 Frc consts  --      0.4340                 0.3915                 0.4391
 IR Inten    --      1.5373                 4.1147                 0.5229

                     16                     17                     18
                      A                      A                      A
 Frequencies --    556.3926               596.7122               669.7909
 Red. masses --      3.3296                 3.0137                 2.2480
 Frc consts  --      0.6073                 0.6322                 0.5942
 IR Inten    --      8.1771                11.5502                10.9715

                     19                     20                     21
                      A                      A                      A
 Frequencies --    689.7148               824.3424               835.0137
 Red. masses --      2.5489                 2.0586                 1.5837
 Frc consts  --      0.7144                 0.8242                 0.6506
 IR Inten    --      3.7170                 7.3408                 1.1637

                     22                     23                     24
                      A                      A                      A
 Frequencies --    847.5743               872.0287               896.1434
 Red. masses --      2.9165                 2.0129                 2.3503
 Frc consts  --      1.2344                 0.9018                 1.1120
 IR Inten    --      3.2703                 3.5711                 6.4431

                     25                     26                     27
                      A                      A                      A
 Frequencies --    900.3678               917.6233               927.4198
 Red. masses --      2.4016                 2.5675                 1.9140
 Frc consts  --      1.1471                 1.2738                 0.9699
 IR Inten    --     53.0899                10.7629                57.6451

                     28                     29                     30
                      A                      A                      A
 Frequencies --    939.0938               954.4780               987.2137
 Red. masses --      2.1618                 1.5725                 1.9413
 Frc consts  --      1.1232                 0.8441                 1.1147
 IR Inten    --      8.4618                 0.1902                42.3154

                     31                     32                     33
                      A                      A                      A
 Frequencies --   1025.2321              1053.9638              1065.4096
 Red. masses --      2.1596                 2.1600                 1.7187
 Frc consts  --      1.3374                 1.4137                 1.1494
 IR Inten    --     35.4076                68.8138                20.1079

                     34                     35                     36
                      A                      A                      A
 Frequencies --   1070.6110              1072.7900              1091.3105
 Red. masses --      1.6724                 2.2682                 2.5613
 Frc consts  --      1.1294                 1.5380                 1.7973
 IR Inten    --    151.9209                21.4572               263.6095

                     37                     38                     39
                      A                      A                      A
 Frequencies --   1141.0097              1148.2077              1151.3615
 Red. masses --      2.3794                 3.7226                 2.5268
 Frc consts  --      1.8252                 2.8916                 1.9736
 IR Inten    --    188.3742                19.3557                55.2209

                     40                     41                     42
                      A                      A                      A
 Frequencies --   1170.9132              1180.7260              1212.5892
 Red. masses --      3.4213                 2.8207                 1.4190
 Frc consts  --      2.7637                 2.3169                 1.2293
 IR Inten    --    106.5169                30.8832                16.9224

                     43                     44                     45
                      A                      A                      A
 Frequencies --   1216.4408              1239.2614              1251.3212
 Red. masses --      1.3547                 1.7817                 1.4833
 Frc consts  --      1.1811                 1.6121                 1.3684
 IR Inten    --      1.6086                89.6880                56.3885

                     46                     47                     48
                      A                      A                      A
 Frequencies --   1287.1390              1289.1879              1318.9012
 Red. masses --      1.2110                 1.1888                 1.1487
 Frc consts  --      1.1821                 1.1641                 1.1773
 IR Inten    --     27.0625                12.1701                 5.0139

                     49                     50                     51
                      A                      A                      A
 Frequencies --   1330.7756              1341.7333              1356.0071
 Red. masses --      1.1871                 1.2721                 1.3312
 Frc consts  --      1.2386                 1.3493                 1.4421
 IR Inten    --     12.5063                 0.4552                14.4226

                     52                     53                     54
                      A                      A                      A
 Frequencies --   1373.0356              1373.9712              1383.0085
 Red. masses --      1.4882                 1.3794                 1.4099
 Frc consts  --      1.6530                 1.5342                 1.5889
 IR Inten    --     20.4059                 3.9817                20.1007

                     55                     56                     57
                      A                      A                      A
 Frequencies --   1385.3690              1390.1698              1399.0219
 Red. masses --      1.3767                 1.6536                 1.3652
 Frc consts  --      1.5567                 1.8828                 1.5743
 IR Inten    --     12.6634                17.1343                 1.7871

                     58                     59                     60
                      A                      A                      A
 Frequencies --   1404.3807              1421.2758              1425.4449
 Red. masses --      1.3123                 1.3505                 1.3735
 Frc consts  --      1.5249                 1.6073                 1.6442
 IR Inten    --     18.0366                23.9566                 4.2031

                     61                     62                     63
                      A                      A                      A
 Frequencies --   1447.6227              1478.0293              1482.5542
 Red. masses --      1.2958                 1.1064                 1.0860
 Frc consts  --      1.5999                 1.4240                 1.4064
 IR Inten    --      5.2810                 3.9241                11.2494

                     64                     65                     66
                      A                      A                      A
 Frequencies --   1493.0042              1494.7004              1498.5689
 Red. masses --      1.0951                 1.1021                 1.0949
 Frc consts  --      1.4382                 1.4507                 1.4486
 IR Inten    --      5.2776                20.3451                 0.9068

                     67                     68                     69
                      A                      A                      A
 Frequencies --   1502.9677              1512.5689              1517.6259
 Red. masses --      1.0793                 1.0933                 1.0984
 Frc consts  --      1.4365                 1.4738                 1.4905
 IR Inten    --      6.6210                 4.3378                 3.6767

                     70                     71                     72
                      A                      A                      A
 Frequencies --   3026.6014              3041.3270              3046.2326
 Red. masses --      1.0807                 1.0684                 1.0721
 Frc consts  --      5.8327                 5.8226                 5.8618
 IR Inten    --     22.0678                97.0669                85.7373

                     73                     74                     75
                      A                      A                      A
 Frequencies --   3058.7680              3064.8663              3067.1928
 Red. masses --      1.0687                 1.0639                 1.0691
 Frc consts  --      5.8912                 5.8881                 5.9257
 IR Inten    --     37.5838                47.2437                21.8646

                     76                     77                     78
                      A                      A                      A
 Frequencies --   3070.8072              3072.5587              3077.9727
 Red. masses --      1.0676                 1.0675                 1.0628
 Frc consts  --      5.9315                 5.9379                 5.9325
 IR Inten    --     17.9066                 8.4723                81.4454

                     79                     80                     81
                      A                      A                      A
 Frequencies --   3079.2169              3113.7409              3117.8588
 Red. masses --      1.0758                 1.0978                 1.0956
 Frc consts  --      6.0100                 6.2712                 6.2752
 IR Inten    --     70.3666                40.2544                17.8868

                     82                     83                     84
                      A                      A                      A
 Frequencies --   3119.2029              3126.6894              3135.7763
 Red. masses --      1.1026                 1.1040                 1.0994
 Frc consts  --      6.3208                 6.3592                 6.3694
 IR Inten    --     66.5043                33.1204                64.5998

                     85                     86                     87
                      A                      A                      A
 Frequencies --   3136.6275              3138.8181              3143.2497
 Red. masses --      1.0997                 1.0971                 1.0964
 Frc consts  --      6.3745                 6.3685                 6.3825
 IR Inten    --     50.5820                27.1915                18.8711

 - Thermochemistry -
 -------------------
 Temperature   298.150 Kelvin.  Pressure   1.00000 Atm.
 Atom     1 has atomic number  6 and mass  12.00000

 Molecular mass:   186.12559 amu.
 Principal axes and moments of inertia in atomic units:
                           1         2         3
     Eigenvalues --   998.597064327.707344499.38194
           X            0.99988   0.00133  -0.01529
           Y           -0.00140   0.99999  -0.00501
           Z            0.01528   0.00503   0.99987
 This molecule is an asymmetric top.
 Rotational symmetry number  1.
 Warning -- assumption of classical behavior for rotation
           may cause significant error
 Rotational temperatures (Kelvin)      0.08674     0.02001     0.01925
 Rotational constants (GHZ):           1.80728     0.41702     0.40111
 Zero-point vibrational energy     736759.6 (Joules/Mol)
                                  176.08977 (Kcal/Mol)
 Warning -- explicit consideration of  17 degrees of freedom as
           vibrations may cause significant error
 Vibrational temperatures:     42.62    86.87   116.84   156.69   280.93
          (Kelvin)            299.99   342.73   381.49   450.75   536.83
                              549.25   619.68   639.25   685.42   748.41
                              800.52   858.54   963.68   992.35  1186.04
                             1201.40  1219.47  1254.65  1289.35  1295.43
                             1320.26  1334.35  1351.15  1373.28  1420.38
                             1475.08  1516.42  1532.89  1540.37  1543.51
                             1570.15  1641.66  1652.01  1656.55  1684.68
                             1698.80  1744.65  1750.19  1783.02  1800.37
                             1851.91  1854.85  1897.60  1914.69  1930.45
                             1950.99  1975.49  1976.84  1989.84  1993.24
                             2000.14  2012.88  2020.59  2044.90  2050.90
                             2082.81  2126.55  2133.06  2148.10  2150.54
                             2156.11  2162.44  2176.25  2183.53  4354.60
                             4375.79  4382.85  4400.88  4409.66  4413.01
                             4418.21  4420.73  4428.52  4430.31  4479.98
                             4485.90  4487.84  4498.61  4511.68  4512.91
                             4516.06  4522.44

 Zero-point correction=                           0.280617 (Hartree/Particle)
 Thermal correction to Energy=                    0.292485
 Thermal correction to Enthalpy=                  0.293429
 Thermal correction to Gibbs Free Energy=         0.241664
 Sum of electronic and zero-point Energies=           -617.211827
 Sum of electronic and thermal Energies=              -617.199959
 Sum of electronic and thermal Enthalpies=            -617.199014
 Sum of electronic and thermal Free Energies=         -617.250780

                     E (Thermal)             CV                S
                      KCal/Mol        Cal/Mol-Kelvin    Cal/Mol-Kelvin
 Total                  183.537             46.718            108.950
 Electronic               0.000              0.000              0.000
 Translational            0.889              2.981             41.570
 Rotational               0.889              2.981             31.342
 Vibrational            181.760             40.757             36.038
 Vibration     1          0.593              1.984              5.855
 Vibration     2          0.597              1.973              4.445
 Vibration     3          0.600              1.962              3.861
 Vibration     4          0.606              1.942              3.288
 Vibration     5          0.636              1.846              2.177
 Vibration     6          0.642              1.828              2.057
 Vibration     7          0.656              1.782              1.816
 Vibration     8          0.671              1.737              1.628
 Vibration     9          0.701              1.648              1.345
 Vibration    10          0.745              1.527              1.067
 Vibration    11          0.751              1.509              1.032
 Vibration    12          0.792              1.403              0.856
 Vibration    13          0.804              1.373              0.813
 Vibration    14          0.833              1.302              0.720
 Vibration    15          0.875              1.205              0.610
 Vibration    16          0.912              1.126              0.531
 Vibration    17          0.955              1.039              0.455

 Optimization completed.
    -- Stationary point found.
 Normal termination of Gaussian 16 at Sun Nov  4 22:51:51 2018.
