 Gaussian 16, Revision A.03,
 Gaussian 16:  ES64L-G16RevA.03 25-Dec-2016

 ----------------------------------------------------------------------
 #M062X/6-311++G(2d,2p) opt=ModRedundant freq=noraman SCRF=(Solvent=Wat
 er)
 ----------------------------------------------------------------------

 ----------------------------
 D_a1-4_2SO_PHI.inp_extract_5
 ----------------------------
 Symbolic Z-matrix:
 Charge =  0 Multiplicity = 1

 SCF Done:  E(RM062X) =  -617.491256263     A.U. after   12 cycles
 SCF Done:  E(RM062X) =  -617.492824586     A.U. after   10 cycles
 SCF Done:  E(RM062X) =  -617.492916933     A.U. after    9 cycles
 SCF Done:  E(RM062X) =  -617.492928417     A.U. after    8 cycles
 SCF Done:  E(RM062X) =  -617.492929693     A.U. after    8 cycles
 SCF Done:  E(RM062X) =  -617.492930206     A.U. after    8 cycles
 SCF Done:  E(RM062X) =  -617.492930296     A.U. after    8 cycles
 Optimization completed.
    -- Stationary point found.
 Normal termination of Gaussian 16 at Sun Nov  4 21:52:47 2018.

 ----------------------------------------------------------------------
 #N Geom=AllCheck Guess=TCheck SCRF=Check GenChk RM062X/6-311++G(2d,2p)
  Freq
 ----------------------------------------------------------------------

 Structure from the checkpoint file:  "D_a1-4_2SO_PHI.inp_extract_5.chk"
 ----------------------------
 D_a1-4_2SO_PHI.inp_extract_5
 ----------------------------
 Charge =  0 Multiplicity = 1

                         Standard orientation:
 ---------------------------------------------------------------------
 Center     Atomic      Atomic             Coordinates (Angstroms)
 Number     Number       Type             X           Y           Z
 ---------------------------------------------------------------------
      1          6           0       -1.032974    0.335792    0.439515
      2          6           0       -3.785580   -0.283706   -0.433938
      3          8           0        2.004604   -1.410693    0.165827
      4          6           0       -1.897299   -0.869711    0.832815
      5          6           0       -1.787232    1.196840   -0.569589
      6          8           0        0.185201   -0.073143   -0.170628
      7          6           0        2.020578    0.809937    1.138642
      8          6           0        2.817043    1.336453   -0.053271
      9          6           0        1.207059   -0.418974    0.748238
     10          6           0        3.641435    0.199502   -0.653259
     11          6           0        2.730530   -0.969274   -0.985146
     12          6           0       -3.278760    1.153462   -0.252161
     13          8           0       -2.748947   -1.243732   -0.233136
     14          1           0       -0.815339    0.922122    1.337934
     15          1           0       -4.611956   -0.494840    0.251062
     16          1           0       -4.132580   -0.439949   -1.453923
     17          1           0       -1.266835   -1.729314    1.054188
     18          1           0       -2.490488   -0.640193    1.724341
     19          1           0       -1.612373    0.778615   -1.562417
     20          1           0       -1.398351    2.213383   -0.563364
     21          1           0        1.349171    1.572006    1.535565
     22          1           0        2.699519    0.519266    1.943028
     23          1           0        2.129284    1.724135   -0.807795
     24          1           0        3.457851    2.160921    0.257042
     25          1           0        0.764909   -0.886696    1.631013
     26          1           0        4.158720    0.520167   -1.557970
     27          1           0        4.397648   -0.128607    0.063955
     28          1           0        3.294871   -1.836137   -1.320753
     29          1           0        2.024434   -0.689642   -1.771067
     30          1           0       -3.442969    1.491334    0.772671
     31          1           0       -3.841177    1.822049   -0.901084
 ---------------------------------------------------------------------

 SCF Done:  E(RM062X) =  -617.492930296     A.U. after    1 cycles

 The electronic state is 1-A.
 Alpha  occ. eigenvalues --  -19.63197 -19.62920 -19.62853 -10.63646 -10.59071
 Alpha  occ. eigenvalues --  -10.58085 -10.58077 -10.57830 -10.53409 -10.53337
 Alpha  occ. eigenvalues --  -10.53073 -10.53006 -10.52884  -1.20050  -1.16458
 Alpha  occ. eigenvalues --   -1.13506  -0.90573  -0.89945  -0.86795  -0.84667
 Alpha  occ. eigenvalues --   -0.75385  -0.73632  -0.73377  -0.71362  -0.64705
 Alpha  occ. eigenvalues --   -0.62621  -0.60448  -0.59099  -0.57476  -0.56823
 Alpha  occ. eigenvalues --   -0.54804  -0.53440  -0.52367  -0.50258  -0.49520
 Alpha  occ. eigenvalues --   -0.48145  -0.46130  -0.45945  -0.45238  -0.44687
 Alpha  occ. eigenvalues --   -0.44148  -0.42595  -0.41581  -0.40581  -0.39639
 Alpha  occ. eigenvalues --   -0.38348  -0.38264  -0.36795  -0.34894  -0.33293
 Alpha  occ. eigenvalues --   -0.31317
 Alpha virt. eigenvalues --   -0.00172   0.00742   0.00813   0.01130   0.02216
 Alpha virt. eigenvalues --    0.02425   0.02595   0.03441   0.03558   0.04394
 Alpha virt. eigenvalues --    0.04525   0.04647   0.05510   0.05700   0.07175

 Mulliken charges:
               1
     1  C   -0.115487
     2  C   -0.248449
     3  O   -0.296384
     4  C   -0.328888
     5  C   -0.201095
     6  O   -0.291260
     7  C   -0.102926
     8  C   -0.369591
     9  C   -0.147378
    10  C   -0.371904
    11  C   -0.220504
    12  C   -0.308389
    13  O   -0.327821
    14  H    0.203300
    15  H    0.172740
    16  H    0.171274
    17  H    0.219330
    18  H    0.176326
    19  H    0.192883
    20  H    0.159539
    21  H    0.157572
    22  H    0.197100
    23  H    0.178367
    24  H    0.176144
    25  H    0.259988
    26  H    0.166763
    27  H    0.166793
    28  H    0.214643
    29  H    0.164137
    30  H    0.183378
    31  H    0.169800
 Sum of Mulliken charges =   0.00000

 Dipole moment (field-independent basis, Debye):
    X=             -0.3439    Y=              4.0261    Z=              1.7211  Tot=              4.3920
 Quadrupole moment (field-independent basis, Debye-Ang):
   XX=            -71.1032   YY=            -85.4445   ZZ=            -76.3178
   XY=             -3.1007   XZ=             -3.1403   YZ=             -0.4937

  Exact polarizability: 175.839  -1.857 153.763  -1.393  -0.122 153.628
 Approx polarizability: 147.081  -2.883 139.726  -0.432   0.188 143.576

                      1                      2                      3
                      A                      A                      A
 Frequencies --     30.9513                48.8581                65.4804
 Red. masses --      4.1815                 3.5484                 3.1979
 Frc consts  --      0.0024                 0.0050                 0.0081
 IR Inten    --      1.6444                 0.2672                 1.5084

                      4                      5                      6
                      A                      A                      A
 Frequencies --    121.3181               164.8317               211.2896
 Red. masses --      2.9026                 3.6359                 2.0417
 Frc consts  --      0.0252                 0.0582                 0.0537
 IR Inten    --      3.8009                 0.3556                 3.8574

                      7                      8                      9
                      A                      A                      A
 Frequencies --    233.4801               275.4192               303.2414
 Red. masses --      2.6900                 2.7130                 2.5918
 Frc consts  --      0.0864                 0.1213                 0.1404
 IR Inten    --      1.4015                 3.3203                 3.4061

                     10                     11                     12
                      A                      A                      A
 Frequencies --    358.9062               410.4901               440.6675
 Red. masses --      2.2004                 2.6080                 2.3273
 Frc consts  --      0.1670                 0.2589                 0.2663
 IR Inten    --      6.8192                 9.2948                 0.9394

                     13                     14                     15
                      A                      A                      A
 Frequencies --    448.0956               458.7071               515.8033
 Red. masses --      3.6648                 3.0054                 3.0464
 Frc consts  --      0.4336                 0.3726                 0.4775
 IR Inten    --      0.7363                20.4745                 1.8196

                     16                     17                     18
                      A                      A                      A
 Frequencies --    552.1711               585.3220               662.3664
 Red. masses --      3.0493                 2.7721                 2.3172
 Frc consts  --      0.5478                 0.5596                 0.5990
 IR Inten    --      8.2897                 2.8150                15.4775

                     19                     20                     21
                      A                      A                      A
 Frequencies --    698.6742               829.7856               832.8545
 Red. masses --      2.5935                 2.0980                 1.6257
 Frc consts  --      0.7459                 0.8511                 0.6644
 IR Inten    --      5.2337                 6.7671                 2.2764

                     22                     23                     24
                      A                      A                      A
 Frequencies --    846.5806               868.0080               895.1948
 Red. masses --      2.7358                 2.1481                 2.4023
 Frc consts  --      1.1552                 0.9536                 1.1343
 IR Inten    --      2.0146                 7.9680                 6.7411

                     25                     26                     27
                      A                      A                      A
 Frequencies --    904.5930               916.0017               918.6979
 Red. masses --      2.3113                 2.5616                 2.3223
 Frc consts  --      1.1143                 1.2663                 1.1548
 IR Inten    --     45.9492                20.2792                41.0382

                     28                     29                     30
                      A                      A                      A
 Frequencies --    936.2323               953.8145               998.7740
 Red. masses --      1.6447                 1.6607                 1.9402
 Frc consts  --      0.8494                 0.8902                 1.1404
 IR Inten    --     13.9168                 2.5727                26.2676

                     31                     32                     33
                      A                      A                      A
 Frequencies --   1020.9577              1046.3310              1066.4798
 Red. masses --      2.2870                 2.2568                 1.7791
 Frc consts  --      1.4046                 1.4557                 1.1922
 IR Inten    --     46.1022                82.6494                48.0825

                     34                     35                     36
                      A                      A                      A
 Frequencies --   1068.6798              1076.3861              1083.7492
 Red. masses --      1.5747                 2.1398                 2.5855
 Frc consts  --      1.0596                 1.4607                 1.7891
 IR Inten    --     48.0291                10.0812               328.9910

                     37                     38                     39
                      A                      A                      A
 Frequencies --   1135.1683              1145.9044              1151.4718
 Red. masses --      2.3456                 2.3470                 3.4716
 Frc consts  --      1.7809                 1.8157                 2.7120
 IR Inten    --    187.7656                81.0019                31.2697

                     40                     41                     42
                      A                      A                      A
 Frequencies --   1169.8393              1187.2231              1212.0173
 Red. masses --      3.3245                 2.6558                 1.4203
 Frc consts  --      2.6805                 2.2055                 1.2293
 IR Inten    --     21.8831                27.1565                18.0799

                     43                     44                     45
                      A                      A                      A
 Frequencies --   1220.8433              1244.5580              1257.2286
 Red. masses --      1.4238                 1.8724                 1.5521
 Frc consts  --      1.2503                 1.7087                 1.4455
 IR Inten    --      0.1067               122.8742                47.1091

                     46                     47                     48
                      A                      A                      A
 Frequencies --   1285.6875              1291.2263              1319.6293
 Red. masses --      1.2093                 1.2003                 1.1496
 Frc consts  --      1.1777                 1.1791                 1.1795
 IR Inten    --     28.5796                 5.2867                 6.1962

                     49                     50                     51
                      A                      A                      A
 Frequencies --   1330.6295              1343.2185              1357.5234
 Red. masses --      1.1843                 1.3106                 1.3332
 Frc consts  --      1.2355                 1.3932                 1.4476
 IR Inten    --     10.8067                 3.2141                18.9252

                     52                     53                     54
                      A                      A                      A
 Frequencies --   1364.5554              1375.2619              1381.8687
 Red. masses --      1.5720                 1.3332                 1.5467
 Frc consts  --      1.7246                 1.4857                 1.7402
 IR Inten    --      3.6353                12.7528                14.6626

                     55                     56                     57
                      A                      A                      A
 Frequencies --   1385.6367              1391.7121              1403.1413
 Red. masses --      1.3466                 1.5121                 1.3038
 Frc consts  --      1.5233                 1.7255                 1.5124
 IR Inten    --     15.2875                21.8595                 8.8536

                     58                     59                     60
                      A                      A                      A
 Frequencies --   1408.4855              1425.1080              1428.2203
 Red. masses --      1.3397                 1.3502                 1.3641
 Frc consts  --      1.5659                 1.6157                 1.6394
 IR Inten    --     24.1953                 8.8347                 8.4421

                     61                     62                     63
                      A                      A                      A
 Frequencies --   1445.8742              1476.8092              1481.8219
 Red. masses --      1.3267                 1.1021                 1.0855
 Frc consts  --      1.6341                 1.4162                 1.4044
 IR Inten    --      8.5142                 5.1064                 9.9891

                     64                     65                     66
                      A                      A                      A
 Frequencies --   1489.7039              1493.1594              1494.1898
 Red. masses --      1.0987                 1.1096                 1.0934
 Frc consts  --      1.4365                 1.4576                 1.4383
 IR Inten    --      2.1201                15.2741                13.0676

                     67                     68                     69
                      A                      A                      A
 Frequencies --   1503.5093              1511.3812              1517.8905
 Red. masses --      1.0783                 1.0943                 1.0986
 Frc consts  --      1.4361                 1.4727                 1.4913
 IR Inten    --      7.2217                 4.4709                 3.7701

                     70                     71                     72
                      A                      A                      A
 Frequencies --   3032.7721              3042.9154              3048.4436
 Red. masses --      1.0725                 1.0679                 1.0803
 Frc consts  --      5.8120                 5.8256                 5.9151
 IR Inten    --     32.7147                87.5642                53.7287

                     73                     74                     75
                      A                      A                      A
 Frequencies --   3059.7056              3066.3910              3067.6015
 Red. masses --      1.0680                 1.0636                 1.0713
 Frc consts  --      5.8909                 5.8921                 5.9398
 IR Inten    --     35.9729                50.9585                15.6464

                     76                     77                     78
                      A                      A                      A
 Frequencies --   3071.1275              3074.6306              3079.2983
 Red. masses --      1.0631                 1.0685                 1.0762
 Frc consts  --      5.9079                 5.9515                 6.0121
 IR Inten    --     26.9028                16.7835                76.2608

                     79                     80                     81
                      A                      A                      A
 Frequencies --   3082.0628              3113.4828              3116.3276
 Red. masses --      1.0614                 1.0974                 1.1007
 Frc consts  --      5.9403                 6.2677                 6.2980
 IR Inten    --     71.3894                38.7633                45.0001

                     82                     83                     84
                      A                      A                      A
 Frequencies --   3118.2640              3121.8750              3129.4879
 Red. masses --      1.0958                 1.1048                 1.0962
 Frc consts  --      6.2778                 6.3442                 6.3254
 IR Inten    --     15.2920                62.8863                45.0935

                     85                     86                     87
                      A                      A                      A
 Frequencies --   3134.1790              3136.2632              3139.0952
 Red. masses --      1.1025                 1.1001                 1.0997
 Frc consts  --      6.3807                 6.3751                 6.3848
 IR Inten    --     35.0428                51.0220                44.4219

 - Thermochemistry -
 -------------------
 Temperature   298.150 Kelvin.  Pressure   1.00000 Atm.
 Atom     1 has atomic number  6 and mass  12.00000

 Molecular mass:   186.12559 amu.
 Principal axes and moments of inertia in atomic units:
                           1         2         3
     Eigenvalues --   939.434104413.630544726.97167
           X            0.99999  -0.00121  -0.00389
           Y            0.00121   1.00000  -0.00153
           Z            0.00389   0.00153   0.99999
 This molecule is an asymmetric top.
 Rotational symmetry number  1.
 Warning -- assumption of classical behavior for rotation
           may cause significant error
 Rotational temperatures (Kelvin)      0.09220     0.01962     0.01832
 Rotational constants (GHZ):           1.92109     0.40890     0.38180
 Zero-point vibrational energy     736382.9 (Joules/Mol)
                                  175.99975 (Kcal/Mol)
 Warning -- explicit consideration of  17 degrees of freedom as
           vibrations may cause significant error
 Vibrational temperatures:     44.53    70.30    94.21   174.55   237.16
          (Kelvin)            304.00   335.93   396.27   436.30   516.39
                              590.60   634.02   644.71   659.98   742.13
                              794.45   842.15   953.00  1005.24  1193.88
                             1198.29  1218.04  1248.87  1287.99  1301.51
                             1317.92  1321.80  1347.03  1372.33  1437.01
                             1468.93  1505.44  1534.43  1537.59  1548.68
                             1559.27  1633.25  1648.70  1656.71  1683.14
                             1708.15  1743.82  1756.52  1790.64  1808.87
                             1849.82  1857.79  1898.65  1914.48  1932.59
                             1953.17  1963.29  1978.70  1988.20  1993.62
                             2002.36  2018.81  2026.50  2050.41  2054.89
                             2080.29  2124.80  2132.01  2143.35  2148.32
                             2149.81  2163.21  2174.54  2183.91  4363.48
                             4378.08  4386.03  4402.23  4411.85  4413.59
                             4418.67  4423.71  4430.42  4434.40  4479.61
                             4483.70  4486.49  4491.68  4502.64  4509.38
                             4512.38  4516.46

 Zero-point correction=                           0.280473 (Hartree/Particle)
 Thermal correction to Energy=                    0.292425
 Thermal correction to Enthalpy=                  0.293369
 Thermal correction to Gibbs Free Energy=         0.241189
 Sum of electronic and zero-point Energies=           -617.212457
 Sum of electronic and thermal Energies=              -617.200506
 Sum of electronic and thermal Enthalpies=            -617.199561
 Sum of electronic and thermal Free Energies=         -617.251741

                     E (Thermal)             CV                S
                      KCal/Mol        Cal/Mol-Kelvin    Cal/Mol-Kelvin
 Total                  183.499             46.794            109.822
 Electronic               0.000              0.000              0.000
 Translational            0.889              2.981             41.570
 Rotational               0.889              2.981             31.350
 Vibrational            181.722             40.833             36.902
 Vibration     1          0.594              1.984              5.767
 Vibration     2          0.595              1.978              4.863
 Vibration     3          0.597              1.971              4.285
 Vibration     4          0.609              1.931              3.079
 Vibration     5          0.623              1.886              2.494
 Vibration     6          0.643              1.824              2.033
 Vibration     7          0.654              1.790              1.852
 Vibration     8          0.677              1.719              1.562
 Vibration     9          0.695              1.668              1.399
 Vibration    10          0.734              1.557              1.127
 Vibration    11          0.775              1.447              0.925
 Vibration    12          0.801              1.381              0.825
 Vibration    13          0.807              1.365              0.802
 Vibration    14          0.817              1.342              0.770
 Vibration    15          0.871              1.215              0.620
 Vibration    16          0.908              1.135              0.540
 Vibration    17          0.942              1.063              0.476

 Optimization completed.
    -- Stationary point found.
 Normal termination of Gaussian 16 at Sun Nov  4 22:49:59 2018.
