 Gaussian 16, Revision A.03,
 Gaussian 16:  ES64L-G16RevA.03 25-Dec-2016

 ----------------------------------------------------------------------
 #M062X/6-311++G(2d,2p) opt=ModRedundant freq=noraman SCRF=(Solvent=Wat
 er)
 ----------------------------------------------------------------------

 -----------------------------
 D_a1-4_2SO_PHI.inp_extract_17
 -----------------------------
 Symbolic Z-matrix:
 Charge =  0 Multiplicity = 1

 SCF Done:  E(RM062X) =  -617.479136273     A.U. after   12 cycles
 SCF Done:  E(RM062X) =  -617.479030682     A.U. after   11 cycles
 SCF Done:  E(RM062X) =  -617.480379210     A.U. after   10 cycles
 SCF Done:  E(RM062X) =  -617.480971769     A.U. after   10 cycles
 SCF Done:  E(RM062X) =  -617.481051981     A.U. after   10 cycles
 SCF Done:  E(RM062X) =  -617.481116152     A.U. after    9 cycles
 SCF Done:  E(RM062X) =  -617.481153843     A.U. after   10 cycles
 SCF Done:  E(RM062X) =  -617.481164505     A.U. after    9 cycles
 SCF Done:  E(RM062X) =  -617.481175046     A.U. after    9 cycles
 SCF Done:  E(RM062X) =  -617.481178243     A.U. after    8 cycles
 SCF Done:  E(RM062X) =  -617.481179090     A.U. after    8 cycles
 SCF Done:  E(RM062X) =  -617.481179350     A.U. after    8 cycles
 SCF Done:  E(RM062X) =  -617.481179518     A.U. after    7 cycles
 Optimization completed.
    -- Stationary point found.
 Normal termination of Gaussian 16 at Sun Nov  4 22:21:28 2018.

 ----------------------------------------------------------------------
 #N Geom=AllCheck Guess=TCheck SCRF=Check GenChk RM062X/6-311++G(2d,2p)
  Freq
 ----------------------------------------------------------------------

 Structure from the checkpoint file:  "D_a1-4_2SO_PHI.inp_extract_17.chk"
 -----------------------------
 D_a1-4_2SO_PHI.inp_extract_17
 -----------------------------
 Charge =  0 Multiplicity = 1

                         Standard orientation:
 ---------------------------------------------------------------------
 Center     Atomic      Atomic             Coordinates (Angstroms)
 Number     Number       Type             X           Y           Z
 ---------------------------------------------------------------------
      1          6           0       -0.844482   -0.517656   -0.053653
      2          6           0       -3.465849    0.847722   -0.194856
      3          8           0        1.805971   -1.363238   -0.368536
      4          6           0       -1.120577    0.984647   -0.238551
      5          6           0       -2.166009   -1.235416    0.214344
      6          8           0        0.008363   -0.784942    1.049144
      7          6           0        2.170915    0.390439    1.331289
      8          6           0        2.530258    1.378902    0.223363
      9          6           0        1.424494   -0.875564    0.888813
     10          6           0        3.124078    0.613995   -0.951956
     11          6           0        2.114754   -0.421241   -1.400781
     12          6           0       -3.256489   -0.604523   -0.645891
     13          8           0       -2.301881    1.377456    0.435003
     14          1           0       -0.404987   -0.926101   -0.962550
     15          1           0       -3.741633    1.484345   -1.040851
     16          1           0       -4.253350    0.907121    0.554386
     17          1           0       -0.312317    1.567668    0.194221
     18          1           0       -1.198614    1.233400   -1.303300
     19          1           0       -2.413340   -1.115683    1.270411
     20          1           0       -2.056252   -2.299787    0.015160
     21          1           0        1.586390    0.858979    2.121834
     22          1           0        3.104839    0.048935    1.783025
     23          1           0        1.655526    1.931812   -0.121613
     24          1           0        3.232737    2.114624    0.613250
     25          1           0        1.689255   -1.671710    1.583477
     26          1           0        3.349688    1.277343   -1.786772
     27          1           0        4.050969    0.117582   -0.655848
     28          1           0        2.488472   -1.025000   -2.224598
     29          1           0        1.205788    0.086441   -1.738392
     30          1           0       -2.955782   -0.640045   -1.694852
     31          1           0       -4.193569   -1.151973   -0.564598
 ---------------------------------------------------------------------

 SCF Done:  E(RM062X) =  -617.481179518     A.U. after    1 cycles

 The electronic state is 1-A.
 Alpha  occ. eigenvalues --  -19.63829 -19.62806 -19.62452 -10.63949 -10.58648
 Alpha  occ. eigenvalues --  -10.58493 -10.58009 -10.57967 -10.53402 -10.53342
 Alpha  occ. eigenvalues --  -10.53278 -10.53192 -10.53070  -1.19571  -1.16403
 Alpha  occ. eigenvalues --   -1.13236  -0.90860  -0.90356  -0.87221  -0.84421
 Alpha  occ. eigenvalues --   -0.75313  -0.74434  -0.73948  -0.70601  -0.64852
 Alpha  occ. eigenvalues --   -0.62862  -0.60104  -0.58358  -0.58088  -0.56903
 Alpha  occ. eigenvalues --   -0.54604  -0.53124  -0.53032  -0.50907  -0.49586
 Alpha  occ. eigenvalues --   -0.48712  -0.46153  -0.45993  -0.45173  -0.44867
 Alpha  occ. eigenvalues --   -0.43767  -0.42359  -0.41236  -0.40779  -0.39520
 Alpha  occ. eigenvalues --   -0.38862  -0.37288  -0.36613  -0.34913  -0.34102
 Alpha  occ. eigenvalues --   -0.30902
 Alpha virt. eigenvalues --   -0.00219   0.00647   0.00894   0.01115   0.02278
 Alpha virt. eigenvalues --    0.02520   0.02599   0.03255   0.03547   0.04527
 Alpha virt. eigenvalues --    0.04723   0.04959   0.05587   0.05688   0.07126

 Mulliken charges:
               1
     1  C   -0.384453
     2  C   -0.165220
     3  O   -0.294973
     4  C   -0.361811
     5  C   -0.245350
     6  O   -0.229751
     7  C   -0.323775
     8  C   -0.222678
     9  C   -0.052941
    10  C   -0.415068
    11  C   -0.143969
    12  C   -0.377526
    13  O   -0.308289
    14  H    0.256698
    15  H    0.159724
    16  H    0.174339
    17  H    0.262327
    18  H    0.217696
    19  H    0.188021
    20  H    0.179172
    21  H    0.198630
    22  H    0.199200
    23  H    0.142586
    24  H    0.204368
    25  H    0.250810
    26  H    0.181018
    27  H    0.168785
    28  H    0.228034
    29  H    0.156921
    30  H    0.173064
    31  H    0.184408
 Sum of Mulliken charges =  -0.00000

 Dipole moment (field-independent basis, Debye):
    X=              1.0298    Y=              0.9096    Z=             -2.9407  Tot=              3.2458
 Quadrupole moment (field-independent basis, Debye-Ang):
   XX=            -70.3530   YY=            -85.8374   ZZ=            -79.0660
   XY=              6.9547   XZ=              4.0335   YZ=             -1.7580

  Exact polarizability: 174.236   1.464 153.206   0.914  -2.063 156.379
 Approx polarizability: 147.770  -0.676 139.097   0.008  -1.119 144.808

 ******    1 imaginary frequencies (negative Signs) ******

                      1                      2                      3
                      A                      A                      A
 Frequencies --    -66.0373                49.6636                63.2598
 Red. masses --      3.3253                 3.8870                 3.0362
 Frc consts  --      0.0085                 0.0056                 0.0072
 IR Inten    --      5.1276                 2.5892                 1.0088

                      4                      5                      6
                      A                      A                      A
 Frequencies --    136.2307               150.8801               210.7165
 Red. masses --      2.9942                 2.6980                 2.3297
 Frc consts  --      0.0327                 0.0362                 0.0609
 IR Inten    --      1.5244                 0.8142                 5.7039

                      7                      8                      9
                      A                      A                      A
 Frequencies --    233.7126               268.9938               314.1522
 Red. masses --      3.6675                 2.9857                 2.6005
 Frc consts  --      0.1180                 0.1273                 0.1512
 IR Inten    --      9.7374                 3.5369                 4.2518

                     10                     11                     12
                      A                      A                      A
 Frequencies --    351.1972               393.1043               425.8382
 Red. masses --      1.7888                 2.1970                 3.0487
 Frc consts  --      0.1300                 0.2000                 0.3257
 IR Inten    --      2.0101                 3.6304                16.5086

                     13                     14                     15
                      A                      A                      A
 Frequencies --    438.8312               453.4566               487.5397
 Red. masses --      3.5739                 3.2831                 3.6249
 Frc consts  --      0.4055                 0.3977                 0.5077
 IR Inten    --      2.7756                 0.9214                 0.7928

                     16                     17                     18
                      A                      A                      A
 Frequencies --    549.3803               593.9083               659.9401
 Red. masses --      2.6097                 2.7818                 2.2803
 Frc consts  --      0.4641                 0.5781                 0.5851
 IR Inten    --      5.8482                 0.4003                18.9779

                     19                     20                     21
                      A                      A                      A
 Frequencies --    730.8297               767.5880               821.6041
 Red. masses --      3.3757                 2.5911                 1.7918
 Frc consts  --      1.0623                 0.8995                 0.7126
 IR Inten    --      9.5197                13.7825                 5.6998

                     22                     23                     24
                      A                      A                      A
 Frequencies --    844.8513               857.2276               889.3486
 Red. masses --      2.1902                 2.0143                 2.4687
 Frc consts  --      0.9211                 0.8721                 1.1504
 IR Inten    --      5.0375                 4.1641                24.0436

                     25                     26                     27
                      A                      A                      A
 Frequencies --    905.3522               915.0775               922.3783
 Red. masses --      2.3142                 2.5123                 2.2501
 Frc consts  --      1.1176                 1.2395                 1.1279
 IR Inten    --     22.6173                24.6634                44.7318

                     28                     29                     30
                      A                      A                      A
 Frequencies --    932.8305               953.0020               972.4590
 Red. masses --      1.8052                 1.8372                 1.7909
 Frc consts  --      0.9255                 0.9831                 0.9978
 IR Inten    --      8.4187                10.3435                21.2948

                     31                     32                     33
                      A                      A                      A
 Frequencies --   1020.5209              1050.6481              1065.9613
 Red. masses --      2.2265                 2.3240                 1.8303
 Frc consts  --      1.3662                 1.5114                 1.2254
 IR Inten    --     32.2385                67.2109               106.2725

                     34                     35                     36
                      A                      A                      A
 Frequencies --   1073.4928              1077.6762              1088.9599
 Red. masses --      1.8257                 2.1052                 2.0739
 Frc consts  --      1.2396                 1.4405                 1.4490
 IR Inten    --     21.5968               135.3821               161.8508

                     37                     38                     39
                      A                      A                      A
 Frequencies --   1132.7039              1146.2524              1150.2270
 Red. masses --      2.1289                 2.9058                 3.2874
 Frc consts  --      1.6093                 2.2495                 2.5626
 IR Inten    --     64.6136               127.7315                41.5068

                     40                     41                     42
                      A                      A                      A
 Frequencies --   1169.9034              1192.1635              1212.2951
 Red. masses --      2.7389                 3.1202                 1.3893
 Frc consts  --      2.2086                 2.6128                 1.2030
 IR Inten    --     11.9073               144.7781                21.0468

                     43                     44                     45
                      A                      A                      A
 Frequencies --   1216.2582              1246.0798              1256.7346
 Red. masses --      1.3748                 1.8527                 1.5177
 Frc consts  --      1.1982                 1.6949                 1.4123
 IR Inten    --     15.7806                84.8868                54.1702

                     46                     47                     48
                      A                      A                      A
 Frequencies --   1290.7314              1302.0323              1326.9088
 Red. masses --      1.1869                 1.2626                 1.1993
 Frc consts  --      1.1650                 1.2612                 1.2441
 IR Inten    --     21.8838                49.2200                25.9578

                     49                     50                     51
                      A                      A                      A
 Frequencies --   1335.3550              1344.1006              1364.1371
 Red. masses --      1.1823                 1.3255                 1.3286
 Frc consts  --      1.2422                 1.4109                 1.4567
 IR Inten    --     16.2383                 0.6240                 1.6032

                     52                     53                     54
                      A                      A                      A
 Frequencies --   1371.6536              1372.8087              1383.6824
 Red. masses --      1.3397                 1.4343                 1.2922
 Frc consts  --      1.4850                 1.5926                 1.4577
 IR Inten    --      8.7110                 1.3008                 7.4234

                     55                     56                     57
                      A                      A                      A
 Frequencies --   1389.4442              1391.3790              1409.4584
 Red. masses --      1.3884                 1.6257                 1.3827
 Frc consts  --      1.5792                 1.8543                 1.6184
 IR Inten    --      3.5524                15.3224                 4.2719

                     58                     59                     60
                      A                      A                      A
 Frequencies --   1413.1653              1425.1468              1435.7086
 Red. masses --      1.3214                 1.3524                 1.2782
 Frc consts  --      1.5548                 1.6183                 1.5523
 IR Inten    --      1.8772                 8.7989                14.6406

                     61                     62                     63
                      A                      A                      A
 Frequencies --   1448.1771              1474.4630              1484.5689
 Red. masses --      1.2148                 1.0936                 1.0921
 Frc consts  --      1.5011                 1.4008                 1.4181
 IR Inten    --      5.2708                 5.5009                 7.6515

                     64                     65                     66
                      A                      A                      A
 Frequencies --   1490.2036              1493.6997              1502.0324
 Red. masses --      1.0945                 1.0938                 1.0855
 Frc consts  --      1.4320                 1.4379                 1.4429
 IR Inten    --      3.1204                18.5837                 2.8464

                     67                     68                     69
                      A                      A                      A
 Frequencies --   1503.5480              1516.6260              1519.9458
 Red. masses --      1.0971                 1.0981                 1.0921
 Frc consts  --      1.4613                 1.4882                 1.4865
 IR Inten    --     10.3096                 4.1188                 1.8841

                     70                     71                     72
                      A                      A                      A
 Frequencies --   3027.4452              3039.4790              3044.6191
 Red. masses --      1.0716                 1.0684                 1.0692
 Frc consts  --      5.7870                 5.8152                 5.8396
 IR Inten    --     69.5636                86.2087                46.4357

                     73                     74                     75
                      A                      A                      A
 Frequencies --   3067.2940              3068.5235              3073.0266
 Red. masses --      1.0636                 1.0678                 1.0684
 Frc consts  --      5.8958                 5.9236                 5.9443
 IR Inten    --     36.8171                 7.2656                28.4974

                     76                     77                     78
                      A                      A                      A
 Frequencies --   3082.8188              3083.0361              3097.5583
 Red. masses --      1.0609                 1.0611                 1.0861
 Frc consts  --      5.9407                 5.9422                 6.1400
 IR Inten    --     36.3106                40.7408                78.4735

                     79                     80                     81
                      A                      A                      A
 Frequencies --   3113.9474              3116.7785              3117.7262
 Red. masses --      1.0847                 1.0953                 1.0985
 Frc consts  --      6.1969                 6.2691                 6.2910
 IR Inten    --     23.4780                11.9804                33.7635

                     82                     83                     84
                      A                      A                      A
 Frequencies --   3122.9119              3130.3911              3133.7718
 Red. masses --      1.1012                 1.1005                 1.0979
 Frc consts  --      6.3277                 6.3541                 6.3525
 IR Inten    --     66.1259                45.3924                77.2049

                     85                     86                     87
                      A                      A                      A
 Frequencies --   3134.1786              3137.8351              3162.7463
 Red. masses --      1.0991                 1.1014                 1.0917
 Frc consts  --      6.3611                 6.3894                 6.4339
 IR Inten    --     49.7064                32.1223                14.5815

 - Thermochemistry -
 -------------------
 Temperature   298.150 Kelvin.  Pressure   1.00000 Atm.
 Atom     1 has atomic number  6 and mass  12.00000

 Molecular mass:   186.12559 amu.
 Principal axes and moments of inertia in atomic units:
                           1         2         3
     Eigenvalues --  1119.827453850.264154066.96983
           X            0.99981   0.01848   0.00544
           Y           -0.01838   0.99968  -0.01720
           Z           -0.00575   0.01709   0.99984
 This molecule is an asymmetric top.
 Rotational symmetry number  1.
 Warning -- assumption of classical behavior for rotation
           may cause significant error
 Rotational temperatures (Kelvin)      0.07735     0.02250     0.02130
 Rotational constants (GHZ):           1.61162     0.46873     0.44376
    1 imaginary frequencies ignored.
 Zero-point vibrational energy     736518.6 (Joules/Mol)
                                  176.03217 (Kcal/Mol)
 Warning -- explicit consideration of  16 degrees of freedom as
           vibrations may cause significant error
 Vibrational temperatures:     71.45    91.02   196.01   217.08   303.17
          (Kelvin)            336.26   387.02   451.99   505.29   565.59
                              612.69   631.38   652.42   701.46   790.44
                              854.50   949.51  1051.50  1104.39  1182.11
                             1215.55  1233.36  1279.57  1302.60  1316.59
                             1327.10  1342.14  1371.16  1399.15  1468.30
                             1511.65  1533.68  1544.52  1550.54  1566.77
                             1629.71  1649.20  1654.92  1683.23  1715.26
                             1744.22  1749.92  1792.83  1808.16  1857.07
                             1873.33  1909.13  1921.28  1933.86  1962.69
                             1973.50  1975.17  1990.81  1999.10  2001.88
                             2027.90  2033.23  2050.47  2065.66  2083.60
                             2121.42  2135.96  2144.07  2149.10  2161.09
                             2163.27  2182.09  2186.86  4355.82  4373.13
                             4380.53  4413.15  4414.92  4421.40  4435.49
                             4435.80  4456.70  4480.28  4484.35  4485.71
                             4493.17  4503.93  4508.80  4509.38  4514.64
                             4550.49

 Zero-point correction=                           0.280525 (Hartree/Particle)
 Thermal correction to Energy=                    0.291679
 Thermal correction to Enthalpy=                  0.292623
 Thermal correction to Gibbs Free Energy=         0.243116
 Sum of electronic and zero-point Energies=           -617.200654
 Sum of electronic and thermal Energies=              -617.189501
 Sum of electronic and thermal Enthalpies=            -617.188557
 Sum of electronic and thermal Free Energies=         -617.238064

                     E (Thermal)             CV                S
                      KCal/Mol        Cal/Mol-Kelvin    Cal/Mol-Kelvin
 Total                  183.031             45.051            104.197
 Electronic               0.000              0.000              0.000
 Translational            0.889              2.981             41.570
 Rotational               0.889              2.981             31.239
 Vibrational            181.254             39.089             31.388
 Vibration     1          0.595              1.978              4.831
 Vibration     2          0.597              1.972              4.353
 Vibration     3          0.614              1.917              2.856
 Vibration     4          0.618              1.902              2.661
 Vibration     5          0.643              1.824              2.037
 Vibration     6          0.654              1.789              1.850
 Vibration     7          0.673              1.730              1.603
 Vibration     8          0.702              1.647              1.340
 Vibration     9          0.728              1.573              1.161
 Vibration    10          0.760              1.485              0.988
 Vibration    11          0.788              1.414              0.872
 Vibration    12          0.799              1.386              0.830
 Vibration    13          0.812              1.353              0.785
 Vibration    14          0.843              1.278              0.690
 Vibration    15          0.905              1.141              0.545
 Vibration    16          0.952              1.045              0.460

 Optimization completed.
    -- Stationary point found.
 Normal termination of Gaussian 16 at Sun Nov  4 23:14:41 2018.
