 Gaussian 16, Revision A.03,
 Gaussian 16:  ES64L-G16RevA.03 25-Dec-2016

 ----------------------------------------------------------------------
 #M062X/6-311++G(2d,2p) opt=ModRedundant freq=noraman SCRF=(Solvent=Wat
 er)
 ----------------------------------------------------------------------

 -----------------------------
 D_a1-4_2SO_PHI.inp_extract_12
 -----------------------------
 Symbolic Z-matrix:
 Charge =  0 Multiplicity = 1

 SCF Done:  E(RM062X) =  -617.483015712     A.U. after   12 cycles
 SCF Done:  E(RM062X) =  -617.483342265     A.U. after   11 cycles
 SCF Done:  E(RM062X) =  -617.484510365     A.U. after   10 cycles
 SCF Done:  E(RM062X) =  -617.484883392     A.U. after   10 cycles
 SCF Done:  E(RM062X) =  -617.484945184     A.U. after    9 cycles
 SCF Done:  E(RM062X) =  -617.484952010     A.U. after    9 cycles
 SCF Done:  E(RM062X) =  -617.484954819     A.U. after    8 cycles
 SCF Done:  E(RM062X) =  -617.484956010     A.U. after    8 cycles
 SCF Done:  E(RM062X) =  -617.484956125     A.U. after    7 cycles
 Optimization completed.
    -- Stationary point found.
 Normal termination of Gaussian 16 at Sun Nov  4 22:03:24 2018.

 ----------------------------------------------------------------------
 #N Geom=AllCheck Guess=TCheck SCRF=Check GenChk RM062X/6-311++G(2d,2p)
  Freq
 ----------------------------------------------------------------------

 Structure from the checkpoint file:  "D_a1-4_2SO_PHI.inp_extract_12.chk"
 -----------------------------
 D_a1-4_2SO_PHI.inp_extract_12
 -----------------------------
 Charge =  0 Multiplicity = 1

                         Standard orientation:
 ---------------------------------------------------------------------
 Center     Atomic      Atomic             Coordinates (Angstroms)
 Number     Number       Type             X           Y           Z
 ---------------------------------------------------------------------
      1          6           0       -0.742974    0.051910    0.004207
      2          6           0       -3.687815    0.029083    0.269309
      3          8           0        2.310995    0.447554   -1.271476
      4          6           0       -1.662086   -1.159761    0.236207
      5          6           0       -1.599959    1.294066   -0.223992
      6          8           0        0.074562   -0.125177   -1.147290
      7          6           0        1.768024   -1.426861    0.188968
      8          6           0        2.247485   -0.629038    1.409556
      9          6           0        1.399940   -0.605438   -1.055609
     10          6           0        3.165125    0.515229    0.985710
     11          6           0        2.513125    1.292246   -0.142155
     12          6           0       -2.822771    1.227159    0.685814
     13          8           0       -2.919064   -0.976948   -0.386563
     14          1           0       -0.129176    0.199856    0.889375
     15          1           0       -4.192194   -0.408092    1.136099
     16          1           0       -4.442595    0.334324   -0.453241
     17          1           0       -1.220701   -2.050951   -0.204349
     18          1           0       -1.798466   -1.332787    1.309870
     19          1           0       -1.916325    1.300431   -1.268224
     20          1           0       -1.010948    2.193073   -0.048921
     21          1           0        0.942000   -2.087667    0.450055
     22          1           0        2.589044   -2.069541   -0.132884
     23          1           0        1.408137   -0.221068    1.972509
     24          1           0        2.767369   -1.306186    2.086782
     25          1           0        1.518436   -1.237366   -1.933867
     26          1           0        3.372782    1.177237    1.826352
     27          1           0        4.118962    0.122805    0.626352
     28          1           0        3.145055    2.106542   -0.489114
     29          1           0        1.556799    1.721029    0.177733
     30          1           0       -2.497539    1.122606    1.722666
     31          1           0       -3.411162    2.140755    0.627350
 ---------------------------------------------------------------------

 SCF Done:  E(RM062X) =  -617.484956125     A.U. after    1 cycles

 The electronic state is 1-A.
 Alpha  occ. eigenvalues --  -19.62951 -19.62948 -19.62862 -10.63892 -10.58983
 Alpha  occ. eigenvalues --  -10.58073 -10.58071 -10.58037 -10.53857 -10.53524
 Alpha  occ. eigenvalues --  -10.53389 -10.53292 -10.53056  -1.19621  -1.16469
 Alpha  occ. eigenvalues --   -1.13379  -0.90566  -0.90357  -0.87014  -0.84807
 Alpha  occ. eigenvalues --   -0.75360  -0.74702  -0.73691  -0.70512  -0.65282
 Alpha  occ. eigenvalues --   -0.63115  -0.59620  -0.58923  -0.57698  -0.57208
 Alpha  occ. eigenvalues --   -0.54709  -0.53142  -0.52869  -0.50410  -0.50106
 Alpha  occ. eigenvalues --   -0.48739  -0.46502  -0.45561  -0.45161  -0.44948
 Alpha  occ. eigenvalues --   -0.44078  -0.42691  -0.41418  -0.40449  -0.39694
 Alpha  occ. eigenvalues --   -0.38578  -0.37087  -0.36698  -0.35669  -0.33331
 Alpha  occ. eigenvalues --   -0.31565
 Alpha virt. eigenvalues --   -0.00267   0.00671   0.00865   0.01128   0.02250
 Alpha virt. eigenvalues --    0.02575   0.02747   0.03315   0.03479   0.04581
 Alpha virt. eigenvalues --    0.04681   0.04934   0.05742   0.05940   0.07352

 Mulliken charges:
               1
     1  C   -0.189574
     2  C   -0.225956
     3  O   -0.274118
     4  C   -0.398748
     5  C   -0.063605
     6  O   -0.280883
     7  C   -0.215346
     8  C   -0.374912
     9  C   -0.191828
    10  C   -0.289334
    11  C   -0.243700
    12  C   -0.343286
    13  O   -0.333762
    14  H    0.243086
    15  H    0.163355
    16  H    0.178319
    17  H    0.218302
    18  H    0.198253
    19  H    0.199592
    20  H    0.159050
    21  H    0.161793
    22  H    0.241184
    23  H    0.183943
    24  H    0.190280
    25  H    0.253006
    26  H    0.159424
    27  H    0.174709
    28  H    0.227905
    29  H    0.114781
    30  H    0.177859
    31  H    0.180210
 Sum of Mulliken charges =  -0.00000

 Dipole moment (field-independent basis, Debye):
    X=              0.5837    Y=              0.5562    Z=              5.1254  Tot=              5.1884
 Quadrupole moment (field-independent basis, Debye-Ang):
   XX=            -78.9430   YY=            -76.9813   ZZ=            -84.8936
   XY=             -6.8283   XZ=              0.4911   YZ=              0.8978

  Exact polarizability: 173.585  -1.036 157.483  -1.017   0.627 151.942
 Approx polarizability: 147.567  -1.204 141.461  -0.934   1.820 142.293

 ******    1 imaginary frequencies (negative Signs) ******

                      1                      2                      3
                      A                      A                      A
 Frequencies --    -28.3276                53.8139                68.3269
 Red. masses --      3.9958                 3.5157                 3.2395
 Frc consts  --      0.0019                 0.0060                 0.0089
 IR Inten    --      1.9122                 1.0927                 0.4533

                      4                      5                      6
                      A                      A                      A
 Frequencies --    118.7273               179.1846               217.4953
 Red. masses --      3.5308                 2.4391                 3.0991
 Frc consts  --      0.0293                 0.0461                 0.0864
 IR Inten    --      2.7519                 4.8992                 1.9423

                      7                      8                      9
                      A                      A                      A
 Frequencies --    234.0627               283.1462               320.0540
 Red. masses --      2.2299                 2.7918                 2.5021
 Frc consts  --      0.0720                 0.1319                 0.1510
 IR Inten    --      3.4377                 2.9549                 5.4595

                     10                     11                     12
                      A                      A                      A
 Frequencies --    347.8094               374.0294               438.8178
 Red. masses --      2.0557                 2.4182                 3.2464
 Frc consts  --      0.1465                 0.1993                 0.3683
 IR Inten    --      1.4182                10.3054                 0.8263

                     13                     14                     15
                      A                      A                      A
 Frequencies --    446.0945               449.9789               517.1966
 Red. masses --      3.0838                 3.3368                 2.8190
 Frc consts  --      0.3616                 0.3981                 0.4443
 IR Inten    --      6.6745                 4.9571                 4.3288

                     16                     17                     18
                      A                      A                      A
 Frequencies --    553.8814               585.5387               658.0428
 Red. masses --      3.0159                 2.7319                 2.2629
 Frc consts  --      0.5451                 0.5519                 0.5773
 IR Inten    --     12.3588                 3.2502                15.3347

                     19                     20                     21
                      A                      A                      A
 Frequencies --    745.1038               781.0121               823.7302
 Red. masses --      3.0635                 2.4249                 1.7616
 Frc consts  --      1.0021                 0.8715                 0.7042
 IR Inten    --      4.9599                 9.6866                12.2786

                     22                     23                     24
                      A                      A                      A
 Frequencies --    836.0964               861.2727               896.2430
 Red. masses --      2.3988                 1.9392                 2.2058
 Frc consts  --      0.9880                 0.8475                 1.0439
 IR Inten    --      6.6343                 5.8284                 8.4843

                     25                     26                     27
                      A                      A                      A
 Frequencies --    900.8944               915.2406               919.6816
 Red. masses --      2.6224                 2.5251                 2.3024
 Frc consts  --      1.2540                 1.2463                 1.1474
 IR Inten    --     55.7081                20.2181                44.2747

                     28                     29                     30
                      A                      A                      A
 Frequencies --    931.7702               953.3753               972.9711
 Red. masses --      1.7387                 1.9509                 1.7682
 Frc consts  --      0.8894                 1.0448                 0.9862
 IR Inten    --     17.6003                 2.3857                29.5275

                     31                     32                     33
                      A                      A                      A
 Frequencies --   1023.2197              1048.2300              1067.0090
 Red. masses --      2.2140                 2.3725                 1.9194
 Frc consts  --      1.3657                 1.5359                 1.2875
 IR Inten    --     13.6391                99.6348               167.0769

                     34                     35                     36
                      A                      A                      A
 Frequencies --   1069.4445              1071.5028              1093.1300
 Red. masses --      1.8919                 1.9896                 1.9798
 Frc consts  --      1.2749                 1.3459                 1.3939
 IR Inten    --     44.2291                68.5388               133.9145

                     37                     38                     39
                      A                      A                      A
 Frequencies --   1128.9805              1146.5222              1150.6436
 Red. masses --      1.9546                 3.3478                 3.1329
 Frc consts  --      1.4678                 2.5929                 2.4439
 IR Inten    --     38.6765               118.8334                97.1859

                     40                     41                     42
                      A                      A                      A
 Frequencies --   1170.5613              1189.8192              1216.4826
 Red. masses --      2.5305                 3.4631                 1.4335
 Frc consts  --      2.0429                 2.8886                 1.2499
 IR Inten    --      8.2760               128.1311                 0.1616

                     43                     44                     45
                      A                      A                      A
 Frequencies --   1221.6923              1241.3312              1256.3625
 Red. masses --      1.4989                 1.6557                 1.4744
 Frc consts  --      1.3181                 1.5032                 1.3712
 IR Inten    --     73.3832                48.0478                36.1605

                     46                     47                     48
                      A                      A                      A
 Frequencies --   1291.1367              1300.7750              1317.3749
 Red. masses --      1.1960                 1.2455                 1.2007
 Frc consts  --      1.1747                 1.2416                 1.2278
 IR Inten    --     32.5618                36.1395                11.5086

                     49                     50                     51
                      A                      A                      A
 Frequencies --   1334.5333              1343.8011              1356.4853
 Red. masses --      1.1935                 1.2969                 1.4873
 Frc consts  --      1.2524                 1.3798                 1.6125
 IR Inten    --     15.8245                 0.7842                 0.5805

                     52                     53                     54
                      A                      A                      A
 Frequencies --   1364.9224              1376.4095              1386.3054
 Red. masses --      1.3038                 1.3712                 1.3762
 Frc consts  --      1.4311                 1.5306                 1.5583
 IR Inten    --      3.1615                 4.3558                 7.5601

                     55                     56                     57
                      A                      A                      A
 Frequencies --   1388.2642              1393.4012              1404.5030
 Red. masses --      1.2987                 1.5170                 1.3630
 Frc consts  --      1.4747                 1.7354                 1.5842
 IR Inten    --      2.4736                10.4896                 1.8718

                     58                     59                     60
                      A                      A                      A
 Frequencies --   1415.5210              1421.0141              1427.1113
 Red. masses --      1.3520                 1.3603                 1.3554
 Frc consts  --      1.5961                 1.6184                 1.6264
 IR Inten    --     11.7674                30.9825                 3.4229

                     61                     62                     63
                      A                      A                      A
 Frequencies --   1440.6391              1477.9152              1483.9400
 Red. masses --      1.2330                 1.0965                 1.0875
 Frc consts  --      1.5078                 1.4111                 1.4109
 IR Inten    --      3.6529                 6.6963                13.6721

                     64                     65                     66
                      A                      A                      A
 Frequencies --   1488.7917              1495.5536              1503.2190
 Red. masses --      1.0985                 1.0917                 1.0787
 Frc consts  --      1.4345                 1.4387                 1.4362
 IR Inten    --      2.6362                 7.8157                 7.5665

                     67                     68                     69
                      A                      A                      A
 Frequencies --   1511.7318              1517.7089              1522.0994
 Red. masses --      1.0949                 1.0980                 1.0921
 Frc consts  --      1.4743                 1.4901                 1.4907
 IR Inten    --     13.2103                 3.2765                 4.5761

                     70                     71                     72
                      A                      A                      A
 Frequencies --   3028.2533              3036.2303              3041.3771
 Red. masses --      1.0701                 1.0702                 1.0681
 Frc consts  --      5.7819                 5.8125                 5.8209
 IR Inten    --     64.0105                59.0084                89.3269

                     73                     74                     75
                      A                      A                      A
 Frequencies --   3066.9738              3073.3769              3079.0023
 Red. masses --      1.0631                 1.0688                 1.0677
 Frc consts  --      5.8915                 5.9478                 5.9639
 IR Inten    --     35.6713                29.6345                10.8313

                     76                     77                     78
                      A                      A                      A
 Frequencies --   3082.2296              3083.3122              3110.8268
 Red. masses --      1.0619                 1.0599                 1.0916
 Frc consts  --      5.9436                 5.9368                 6.2238
 IR Inten    --     28.2547                35.8653                70.7828

                     79                     80                     81
                      A                      A                      A
 Frequencies --   3114.0270              3117.3084              3120.8485
 Red. masses --      1.0929                 1.0955                 1.1018
 Frc consts  --      6.2443                 6.2725                 6.3225
 IR Inten    --     29.3664                17.4644                53.0731

                     82                     83                     84
                      A                      A                      A
 Frequencies --   3127.2756              3130.8942              3133.1627
 Red. masses --      1.0986                 1.1024                 1.0954
 Frc consts  --      6.3300                 6.3667                 6.3358
 IR Inten    --     19.8480                56.3304                53.3699

                     85                     86                     87
                      A                      A                      A
 Frequencies --   3135.6152              3141.3839              3151.8621
 Red. masses --      1.0992                 1.0953                 1.0859
 Frc consts  --      6.3674                 6.3683                 6.3561
 IR Inten    --     60.1261                11.8007                50.7970

 - Thermochemistry -
 -------------------
 Temperature   298.150 Kelvin.  Pressure   1.00000 Atm.
 Atom     1 has atomic number  6 and mass  12.00000

 Molecular mass:   186.12559 amu.
 Principal axes and moments of inertia in atomic units:
                           1         2         3
     Eigenvalues --  1075.274894022.216004157.10897
           X            0.99993  -0.01085   0.00495
           Y            0.01086   0.99993  -0.00379
           Z           -0.00490   0.00384   0.99998
 This molecule is an asymmetric top.
 Rotational symmetry number  1.
 Warning -- assumption of classical behavior for rotation
           may cause significant error
 Rotational temperatures (Kelvin)      0.08055     0.02153     0.02084
 Rotational constants (GHZ):           1.67840     0.44869     0.43413
    1 imaginary frequencies ignored.
 Zero-point vibrational energy     736993.2 (Joules/Mol)
                                  176.14560 (Kcal/Mol)
 Warning -- explicit consideration of  16 degrees of freedom as
           vibrations may cause significant error
 Vibrational temperatures:     77.43    98.31   170.82   257.81   312.93
          (Kelvin)            336.76   407.38   460.49   500.42   538.14
                              631.36   641.83   647.42   744.13   796.91
                              842.46   946.78  1072.04  1123.70  1185.16
                             1202.96  1239.18  1289.49  1296.19  1316.83
                             1323.22  1340.61  1371.69  1399.89  1472.18
                             1508.17  1535.19  1538.69  1541.65  1572.77
                             1624.35  1649.59  1655.52  1684.18  1711.88
                             1750.25  1757.74  1786.00  1807.63  1857.66
                             1871.53  1895.41  1920.10  1933.43  1951.68
                             1963.82  1980.35  1994.58  1997.40  2004.79
                             2020.77  2036.62  2044.52  2053.29  2072.76
                             2126.39  2135.06  2142.04  2151.77  2162.80
                             2175.04  2183.64  2189.96  4356.98  4368.46
                             4375.86  4412.69  4421.90  4430.00  4434.64
                             4436.20  4475.79  4480.39  4485.11  4490.20
                             4499.45  4504.66  4507.92  4511.45  4519.75
                             4534.83

 Zero-point correction=                           0.280706 (Hartree/Particle)
 Thermal correction to Energy=                    0.291770
 Thermal correction to Enthalpy=                  0.292714
 Thermal correction to Gibbs Free Energy=         0.243480
 Sum of electronic and zero-point Energies=           -617.204250
 Sum of electronic and thermal Energies=              -617.193186
 Sum of electronic and thermal Enthalpies=            -617.192242
 Sum of electronic and thermal Free Energies=         -617.241477

                     E (Thermal)             CV                S
                      KCal/Mol        Cal/Mol-Kelvin    Cal/Mol-Kelvin
 Total                  183.088             44.910            103.623
 Electronic               0.000              0.000              0.000
 Translational            0.889              2.981             41.570
 Rotational               0.889              2.981             31.264
 Vibrational            181.311             38.949             30.789
 Vibration     1          0.596              1.976              4.672
 Vibration     2          0.598              1.969              4.201
 Vibration     3          0.609              1.934              3.121
 Vibration     4          0.629              1.868              2.337
 Vibration     5          0.646              1.814              1.980
 Vibration     6          0.654              1.789              1.848
 Vibration     7          0.682              1.705              1.515
 Vibration     8          0.706              1.635              1.310
 Vibration     9          0.725              1.580              1.176
 Vibration    10          0.745              1.525              1.063
 Vibration    11          0.799              1.386              0.830
 Vibration    12          0.805              1.370              0.808
 Vibration    13          0.809              1.361              0.796
 Vibration    14          0.872              1.212              0.616
 Vibration    15          0.909              1.131              0.536
 Vibration    16          0.943              1.063              0.475

 Optimization completed.
    -- Stationary point found.
 Normal termination of Gaussian 16 at Sun Nov  4 23:01:03 2018.
