 Gaussian 16, Revision B.01,
 Gaussian 16:  ES64L-G16RevB.01 20-Dec-2017

 ----------------------------------------------------------------------
 #M062X/6-311++G(2d,2p) opt=ModRedundant freq=noraman SCRF=(SMD,solvent
 =water)
 ----------------------------------------------------------------------

 --------------------------------
 4c1_a1_a4_4c1_PHI.inp_extract_20
 --------------------------------
 Symbolic Z-matrix:
 Charge =  0 Multiplicity = 1

 SCF Done:  E(RM062X) =  -617.495066050     A.U. after   12 cycles
 SCF Done:  E(RM062X) =  -617.496130659     A.U. after   10 cycles
 SCF Done:  E(RM062X) =  -617.496464644     A.U. after   10 cycles
 SCF Done:  E(RM062X) =  -617.497056563     A.U. after   10 cycles
 SCF Done:  E(RM062X) =  -617.497115820     A.U. after    9 cycles
 SCF Done:  E(RM062X) =  -617.497125777     A.U. after    9 cycles
 SCF Done:  E(RM062X) =  -617.497126827     A.U. after    7 cycles
 SCF Done:  E(RM062X) =  -617.497127030     A.U. after    7 cycles
 Optimization completed.
    -- Stationary point found.
 Normal termination of Gaussian 16 at Fri Mar  8 19:58:02 2019.

 ----------------------------------------------------------------------
 #N Geom=AllCheck Guess=TCheck SCRF=Check GenChk RM062X/6-311++G(2d,2p)
  Freq
 ----------------------------------------------------------------------

 Structure from the checkpoint file:  "4c1_a1_a4_4c1_PHI.inp_extract_20.chk"
 --------------------------------
 4c1_a1_a4_4c1_PHI.inp_extract_20
 --------------------------------
 Charge =  0 Multiplicity = 1

                         Standard orientation:
 ---------------------------------------------------------------------
 Center     Atomic      Atomic             Coordinates (Angstroms)
 Number     Number       Type             X           Y           Z
 ---------------------------------------------------------------------
      1          6           0        1.734606   -0.953264   -1.132752
      2          6           0       -1.071310    0.176208    1.007928
      3          6           0        0.813414    0.128618   -0.597478
      4          6           0       -3.449518    0.056899   -0.631693
      5          6           0        3.573574   -0.201419    0.128605
      6          8           0        2.741679   -1.314126   -0.197502
      7          6           0       -2.861012   -1.231883   -0.070086
      8          6           0       -2.329215    1.040862   -0.896584
      9          6           0       -2.131480   -0.889328    1.221319
     10          6           0        2.767701    0.915210    0.768090
     11          8           0       -1.500660    1.284061    0.255302
     12          8           0        0.114732   -0.447224    0.504334
     13          6           0        1.635081    1.342951   -0.163967
     14          1           0        2.201103   -0.591925   -2.055613
     15          1           0        1.169422   -1.857747   -1.350531
     16          1           0       -0.795258    0.614035    1.969387
     17          1           0        0.126942    0.399527   -1.395129
     18          1           0       -4.157594    0.481298    0.083820
     19          1           0       -3.980922   -0.114615   -1.567963
     20          1           0        4.339409   -0.580315    0.802230
     21          1           0        4.059030    0.158036   -0.786446
     22          1           0       -2.165076   -1.665198   -0.794070
     23          1           0       -3.637918   -1.970814    0.120694
     24          1           0       -2.712383    2.020860   -1.172691
     25          1           0       -1.717922    0.671886   -1.722218
     26          1           0       -2.848315   -0.500016    1.947219
     27          1           0       -1.646241   -1.756438    1.667289
     28          1           0        3.426426    1.756209    0.985615
     29          1           0        2.360309    0.561082    1.717070
     30          1           0        0.988132    2.076734    0.314784
     31          1           0        2.053794    1.806580   -1.060815
 ---------------------------------------------------------------------

 SCF Done:  E(RM062X) =  -617.497127030     A.U. after    1 cycles

 The electronic state is 1-A.
 Alpha  occ. eigenvalues --  -19.63640 -19.62829 -19.62348 -10.63361 -10.58104
 Alpha  occ. eigenvalues --  -10.57582 -10.57450 -10.57243 -10.52465 -10.52426
 Alpha  occ. eigenvalues --  -10.52335 -10.52216 -10.52166  -1.19199  -1.16148
 Alpha  occ. eigenvalues --   -1.12753  -0.90538  -0.89299  -0.87001  -0.83980
 Alpha  occ. eigenvalues --   -0.74204  -0.73600  -0.72624  -0.70715  -0.65479
 Alpha  occ. eigenvalues --   -0.62160  -0.59045  -0.57787  -0.56951  -0.55269
 Alpha  occ. eigenvalues --   -0.53188  -0.52684  -0.51832  -0.50563  -0.50111
 Alpha  occ. eigenvalues --   -0.47450  -0.46149  -0.45954  -0.45132  -0.44662
 Alpha  occ. eigenvalues --   -0.43403  -0.42328  -0.40143  -0.39584  -0.39080
 Alpha  occ. eigenvalues --   -0.38090  -0.37153  -0.35797  -0.34771  -0.32816
 Alpha  occ. eigenvalues --   -0.31330
 Alpha virt. eigenvalues --    0.00292   0.01281   0.01348   0.01599   0.02723
 Alpha virt. eigenvalues --    0.02966   0.03114   0.03822   0.03963   0.05017
 Alpha virt. eigenvalues --    0.05135   0.05368   0.06101   0.06214   0.07453

 Mulliken charges:
               1
     1  C   -0.517092
     2  C   -0.160621
     3  C    0.191661
     4  C   -0.390138
     5  C   -0.218622
     6  O   -0.367233
     7  C   -0.260595
     8  C   -0.147087
     9  C   -0.344001
    10  C   -0.304519
    11  O   -0.302315
    12  O   -0.326480
    13  C   -0.331818
    14  H    0.207969
    15  H    0.212545
    16  H    0.242165
    17  H    0.231286
    18  H    0.170931
    19  H    0.188954
    20  H    0.209682
    21  H    0.150291
    22  H    0.153917
    23  H    0.200314
    24  H    0.198684
    25  H    0.155072
    26  H    0.198659
    27  H    0.187874
    28  H    0.184709
    29  H    0.165734
    30  H    0.194392
    31  H    0.225680
 Sum of Mulliken charges =  -0.00000

 Dipole moment (field-independent basis, Debye):
    X=             -2.1155    Y=              1.8899    Z=             -2.3214  Tot=              3.6655
 Quadrupole moment (field-independent basis, Debye-Ang):
   XX=            -71.1389   YY=            -86.2345   ZZ=            -74.5878
   XY=              9.3788   XZ=              0.0824   YZ=             -0.4327

  Exact polarizability: 180.848   0.368 169.142   2.108  -1.065 173.122
 Approx polarizability: 144.769  -0.322 141.208   1.180  -1.236 144.280

 ******    1 imaginary frequencies (negative Signs) ******

                      1                      2                      3
                      A                      A                      A
 Frequencies --    -74.1710                49.8832                94.6517
 Red. masses --      3.5874                 4.0003                 3.5002
 Frc consts  --      0.0116                 0.0059                 0.0185
 IR Inten    --      9.2260                 0.4843                 1.4613

                      4                      5                      6
                      A                      A                      A
 Frequencies --    131.1466               194.2959               202.6296
 Red. masses --      3.0811                 4.2471                 3.2252
 Frc consts  --      0.0312                 0.0945                 0.0780
 IR Inten    --      0.8593                 6.9623                14.5667

                      7                      8                      9
                      A                      A                      A
 Frequencies --    242.2674               274.3659               337.3385
 Red. masses --      3.2875                 2.1417                 2.0542
 Frc consts  --      0.1137                 0.0950                 0.1377
 IR Inten    --      1.2300                 7.6381                 4.3795

                     10                     11                     12
                      A                      A                      A
 Frequencies --    371.8051               403.6400               433.7980
 Red. masses --      2.1809                 2.1962                 2.4195
 Frc consts  --      0.1776                 0.2108                 0.2683
 IR Inten    --      1.3095                10.6813                10.6979

                     13                     14                     15
                      A                      A                      A
 Frequencies --    437.0912               480.8784               521.1180
 Red. masses --      2.8297                 3.8282                 2.5177
 Frc consts  --      0.3185                 0.5216                 0.4028
 IR Inten    --      1.1122                 9.4332                 5.2637

                     16                     17                     18
                      A                      A                      A
 Frequencies --    528.1827               580.3969               679.5494
 Red. masses --      2.7088                 2.5659                 2.7307
 Frc consts  --      0.4452                 0.5093                 0.7429
 IR Inten    --      6.3669                 4.7245                 2.0676

                     19                     20                     21
                      A                      A                      A
 Frequencies --    743.1483               810.6230               846.1696
 Red. masses --      2.6952                 2.2774                 2.3988
 Frc consts  --      0.8770                 0.8817                 1.0120
 IR Inten    --      4.5214                 6.3161                11.2538

                     22                     23                     24
                      A                      A                      A
 Frequencies --    850.9266               856.8918               878.5705
 Red. masses --      2.6974                 2.1502                 1.6919
 Frc consts  --      1.1507                 0.9302                 0.7695
 IR Inten    --      3.9300                 0.6408                12.2400

                     25                     26                     27
                      A                      A                      A
 Frequencies --    899.1844               902.2215               916.8395
 Red. masses --      2.4115                 2.5445                 2.4107
 Frc consts  --      1.1488                 1.2203                 1.1939
 IR Inten    --     51.7611                30.2798                55.4533

                     28                     29                     30
                      A                      A                      A
 Frequencies --    928.9958               942.8673               988.8049
 Red. masses --      1.9856                 1.5113                 2.0342
 Frc consts  --      1.0096                 0.7916                 1.1718
 IR Inten    --      8.8761                17.5140                54.8012

                     31                     32                     33
                      A                      A                      A
 Frequencies --   1031.6808              1039.2739              1056.3321
 Red. masses --      2.0799                 2.3161                 1.8785
 Frc consts  --      1.3043                 1.4739                 1.2350
 IR Inten    --     43.0580                53.3032                23.1076

                     34                     35                     36
                      A                      A                      A
 Frequencies --   1066.3475              1072.7236              1074.5216
 Red. masses --      1.4907                 2.2724                 1.9848
 Frc consts  --      0.9987                 1.5407                 1.3502
 IR Inten    --     56.0628               209.8977                85.2565

                     37                     38                     39
                      A                      A                      A
 Frequencies --   1091.8049              1145.5397              1149.0259
 Red. masses --      1.7167                 2.5144                 2.4657
 Frc consts  --      1.2057                 1.9440                 1.9180
 IR Inten    --      9.2690               111.5041               138.2671

                     40                     41                     42
                      A                      A                      A
 Frequencies --   1166.8121              1195.0787              1207.1996
 Red. masses --      2.3965                 1.9766                 1.3762
 Frc consts  --      1.9223                 1.6633                 1.1817
 IR Inten    --     57.0030                89.6156                 7.5992

                     43                     44                     45
                      A                      A                      A
 Frequencies --   1222.5130              1236.7126              1263.6206
 Red. masses --      1.3637                 1.8224                 2.3655
 Frc consts  --      1.2008                 1.6422                 2.2253
 IR Inten    --     38.4747                28.2926               224.2757

                     46                     47                     48
                      A                      A                      A
 Frequencies --   1287.1135              1295.7555              1329.0423
 Red. masses --      1.2423                 1.1376                 1.1721
 Frc consts  --      1.2125                 1.1254                 1.2198
 IR Inten    --     46.7508                22.6467                30.3739

                     49                     50                     51
                      A                      A                      A
 Frequencies --   1336.0139              1353.4812              1358.3148
 Red. masses --      1.2652                 1.4562                 1.3956
 Frc consts  --      1.3305                 1.5717                 1.5171
 IR Inten    --      9.1836                14.7761                 2.0912

                     52                     53                     54
                      A                      A                      A
 Frequencies --   1363.6141              1382.8980              1388.8767
 Red. masses --      1.4544                 1.5585                 1.5248
 Frc consts  --      1.5933                 1.7561                 1.7330
 IR Inten    --      9.1293                12.9315                 5.4154

                     55                     56                     57
                      A                      A                      A
 Frequencies --   1394.7584              1398.4932              1405.3379
 Red. masses --      1.6912                 1.3498                 1.3936
 Frc consts  --      1.9384                 1.5554                 1.6216
 IR Inten    --     15.0831                26.2529                 5.0894

                     58                     59                     60
                      A                      A                      A
 Frequencies --   1417.1520              1428.8461              1433.5785
 Red. masses --      1.3166                 1.3568                 1.2516
 Frc consts  --      1.5579                 1.6321                 1.5155
 IR Inten    --      4.7865                 6.1933                 0.9490

                     61                     62                     63
                      A                      A                      A
 Frequencies --   1458.3454              1469.7757              1472.0635
 Red. masses --      1.3358                 1.0898                 1.1033
 Frc consts  --      1.6738                 1.3871                 1.4086
 IR Inten    --     22.7247                 4.9698                 6.5096

                     64                     65                     66
                      A                      A                      A
 Frequencies --   1476.7875              1480.5815              1488.5513
 Red. masses --      1.0895                 1.1200                 1.0884
 Frc consts  --      1.4000                 1.4465                 1.4209
 IR Inten    --     10.7406                17.2216                 3.3888

                     67                     68                     69
                      A                      A                      A
 Frequencies --   1490.9614              1504.2854              1518.3976
 Red. masses --      1.1372                 1.1000                 1.1034
 Frc consts  --      1.4894                 1.4666                 1.4988
 IR Inten    --     20.6882                 6.3376                 7.9925

                     70                     71                     72
                      A                      A                      A
 Frequencies --   3027.3775              3043.7172              3056.6936
 Red. masses --      1.0701                 1.0678                 1.0689
 Frc consts  --      5.7786                 5.8282                 5.8840
 IR Inten    --     76.5879                64.2031                32.6097

                     73                     74                     75
                      A                      A                      A
 Frequencies --   3067.5738              3068.1215              3068.9374
 Red. masses --      1.0649                 1.0697                 1.0753
 Frc consts  --      5.9040                 5.9328                 5.9672
 IR Inten    --     40.8271                35.2085                25.1356

                     76                     77                     78
                      A                      A                      A
 Frequencies --   3074.6052              3076.6891              3082.2887
 Red. masses --      1.0612                 1.0640                 1.0707
 Frc consts  --      5.9104                 5.9343                 5.9934
 IR Inten    --     43.6268                54.4390                72.5576

                     79                     80                     81
                      A                      A                      A
 Frequencies --   3119.9691              3120.8861              3122.1897
 Red. masses --      1.1008                 1.0961                 1.1009
 Frc consts  --      6.3134                 6.2900                 6.3232
 IR Inten    --     45.7890                35.1293                64.0971

                     82                     83                     84
                      A                      A                      A
 Frequencies --   3129.0801              3131.7872              3135.4837
 Red. masses --      1.0997                 1.1014                 1.0960
 Frc consts  --      6.3437                 6.3649                 6.3485
 IR Inten    --     41.7438                36.4325                44.9459

                     85                     86                     87
                      A                      A                      A
 Frequencies --   3136.9420              3139.3811              3160.2799
 Red. masses --      1.0971                 1.0997                 1.0835
 Frc consts  --      6.3607                 6.3856                 6.3759
 IR Inten    --     52.0134                40.1157                52.2823

 - Thermochemistry -
 -------------------
 Temperature   298.150 Kelvin.  Pressure   1.00000 Atm.
 Atom     1 has atomic number  6 and mass  12.00000

 Molecular mass:   186.12559 amu.
 Principal axes and moments of inertia in atomic units:
                           1         2         3
     Eigenvalues --  1007.548423929.635084150.78287
           X            0.99985   0.01724   0.00322
           Y           -0.01719   0.99975  -0.01398
           Z           -0.00346   0.01393   0.99990
 This molecule is an asymmetric top.
 Rotational symmetry number  1.
 Warning -- assumption of classical behavior for rotation
           may cause significant error
 Rotational temperatures (Kelvin)      0.08597     0.02204     0.02087
 Rotational constants (GHZ):           1.79122     0.45926     0.43480
    1 imaginary frequencies ignored.
 Zero-point vibrational energy     737153.8 (Joules/Mol)
                                  176.18399 (Kcal/Mol)
 Warning -- explicit consideration of  16 degrees of freedom as
           vibrations may cause significant error
 Vibrational temperatures:     71.77   136.18   188.69   279.55   291.54
          (Kelvin)            348.57   394.75   485.35   534.94   580.75
                              624.14   628.88   691.88   749.77   759.94
                              835.06   977.72  1069.22  1166.31  1217.45
                             1224.29  1232.88  1264.07  1293.73  1298.10
                             1319.13  1336.62  1356.58  1422.67  1484.36
                             1495.28  1519.83  1534.24  1543.41  1546.00
                             1570.86  1648.18  1653.19  1678.78  1719.45
                             1736.89  1758.92  1779.35  1818.07  1851.87
                             1864.30  1912.20  1922.23  1947.36  1954.31
                             1961.94  1989.68  1998.28  2006.75  2012.12
                             2021.97  2038.97  2055.79  2062.60  2098.23
                             2114.68  2117.97  2124.77  2130.23  2141.69
                             2145.16  2164.33  2184.64  4355.72  4379.23
                             4397.90  4413.55  4414.34  4415.52  4423.67
                             4426.67  4434.73  4488.94  4490.26  4492.13
                             4502.05  4505.94  4511.26  4513.36  4516.87
                             4546.94

 Zero-point correction=                           0.280767 (Hartree/Particle)
 Thermal correction to Energy=                    0.291680
 Thermal correction to Enthalpy=                  0.292624
 Thermal correction to Gibbs Free Energy=         0.243925
 Sum of electronic and zero-point Energies=           -617.216360
 Sum of electronic and thermal Energies=              -617.205447
 Sum of electronic and thermal Enthalpies=            -617.204503
 Sum of electronic and thermal Free Energies=         -617.253202

                     E (Thermal)             CV                S
                      KCal/Mol        Cal/Mol-Kelvin    Cal/Mol-Kelvin
 Total                  183.032             44.737            102.497
 Electronic               0.000              0.000              0.000
 Translational            0.889              2.981             41.570
 Rotational               0.889              2.981             31.175
 Vibrational            181.254             38.775             29.752
 Vibration     1          0.595              1.978              4.822
 Vibration     2          0.603              1.953              3.562
 Vibration     3          0.612              1.922              2.929
 Vibration     4          0.635              1.848              2.186
 Vibration     5          0.639              1.836              2.109
 Vibration     6          0.658              1.776              1.786
 Vibration     7          0.677              1.721              1.569
 Vibration     8          0.718              1.601              1.225
 Vibration     9          0.744              1.530              1.072
 Vibration    10          0.769              1.462              0.949
 Vibration    11          0.795              1.397              0.846
 Vibration    12          0.797              1.389              0.836
 Vibration    13          0.837              1.292              0.708
 Vibration    14          0.876              1.203              0.607
 Vibration    15          0.883              1.188              0.591
 Vibration    16          0.937              1.074              0.485

 Optimization completed.
    -- Stationary point found.
 Normal termination of Gaussian 16 at Fri Mar  8 21:03:37 2019.
