 Gaussian 16, Revision B.01,
 Gaussian 16:  ES64L-G16RevB.01 20-Dec-2017

 ----------------------------------------------------------------------
 #M062X/6-311++G(2d,2p) opt=ModRedundant freq=noraman SCRF=(SMD,solvent
 =water)
 ----------------------------------------------------------------------

 --------------------------------
 4c1_a1_a4_4c1_PHI.inp_extract_17
 --------------------------------
 Symbolic Z-matrix:
 Charge =  0 Multiplicity = 1

 SCF Done:  E(RM062X) =  -617.493140287     A.U. after   13 cycles
 SCF Done:  E(RM062X) =  -617.493546489     A.U. after   11 cycles
 SCF Done:  E(RM062X) =  -617.495183251     A.U. after   11 cycles
 SCF Done:  E(RM062X) =  -617.495499328     A.U. after   11 cycles
 SCF Done:  E(RM062X) =  -617.495582495     A.U. after   10 cycles
 SCF Done:  E(RM062X) =  -617.495595086     A.U. after    8 cycles
 SCF Done:  E(RM062X) =  -617.495597098     A.U. after    8 cycles
 SCF Done:  E(RM062X) =  -617.495597563     A.U. after    7 cycles
 SCF Done:  E(RM062X) =  -617.495597635     A.U. after    7 cycles
 Optimization completed.
    -- Stationary point found.
 Normal termination of Gaussian 16 at Fri Mar  8 19:33:19 2019.

 ----------------------------------------------------------------------
 #N Geom=AllCheck Guess=TCheck SCRF=Check GenChk RM062X/6-311++G(2d,2p)
  Freq
 ----------------------------------------------------------------------

 Structure from the checkpoint file:  "4c1_a1_a4_4c1_PHI.inp_extract_17.chk"
 --------------------------------
 4c1_a1_a4_4c1_PHI.inp_extract_17
 --------------------------------
 Charge =  0 Multiplicity = 1

                         Standard orientation:
 ---------------------------------------------------------------------
 Center     Atomic      Atomic             Coordinates (Angstroms)
 Number     Number       Type             X           Y           Z
 ---------------------------------------------------------------------
      1          6           0        1.779871   -1.198705   -0.853545
      2          6           0       -1.132191   -0.196219    1.170231
      3          6           0        0.706649   -0.179072   -0.507186
      4          6           0       -3.234066    0.391005   -0.765333
      5          6           0        3.518421    0.127007    0.015910
      6          8           0        2.876448   -1.147174    0.048617
      7          6           0       -2.734757   -1.043383   -0.636531
      8          6           0       -2.108719    1.358949   -0.461176
      9          6           0       -2.177314   -1.234188    0.770206
     10          6           0        2.560925    1.232170    0.425365
     11          8           0       -1.493359    1.117919    0.813846
     12          8           0        0.180929   -0.568857    0.763610
     13          6           0        1.326486    1.217623   -0.475113
     14          1           0        2.131863   -1.009351   -1.873436
     15          1           0        1.374552   -2.207174   -0.797934
     16          1           0       -1.056807   -0.175235    2.256061
     17          1           0       -0.059151   -0.246863   -1.278790
     18          1           0       -4.053914    0.555503   -0.062051
     19          1           0       -3.607662    0.599525   -1.767982
     20          1           0        4.366428    0.059110    0.694224
     21          1           0        3.894285    0.307804   -0.998081
     22          1           0       -1.971414   -1.244083   -1.390833
     23          1           0       -3.545787   -1.750686   -0.807270
     24          1           0       -2.476895    2.380964   -0.398195
     25          1           0       -1.356247    1.326239   -1.251312
     26          1           0       -3.000617   -1.140465    1.482429
     27          1           0       -1.737577   -2.220816    0.908412
     28          1           0        3.071604    2.193118    0.360626
     29          1           0        2.268643    1.083231    1.466502
     30          1           0        0.594856    1.953638   -0.150076
     31          1           0        1.619866    1.469316   -1.497846
 ---------------------------------------------------------------------

 SCF Done:  E(RM062X) =  -617.495597635     A.U. after    1 cycles

 The electronic state is 1-A.
 Alpha  occ. eigenvalues --  -19.63352 -19.62858 -19.62443 -10.63448 -10.58284
 Alpha  occ. eigenvalues --  -10.57569 -10.57458 -10.57258 -10.52464 -10.52396
 Alpha  occ. eigenvalues --  -10.52348 -10.52258 -10.52201  -1.19065  -1.16162
 Alpha  occ. eigenvalues --   -1.12817  -0.90236  -0.89575  -0.86915  -0.84014
 Alpha  occ. eigenvalues --   -0.74340  -0.73343  -0.73066  -0.70710  -0.65725
 Alpha  occ. eigenvalues --   -0.62156  -0.59031  -0.57400  -0.56860  -0.54954
 Alpha  occ. eigenvalues --   -0.53585  -0.52400  -0.52130  -0.50438  -0.50172
 Alpha  occ. eigenvalues --   -0.48376  -0.46141  -0.45678  -0.45278  -0.44476
 Alpha  occ. eigenvalues --   -0.42834  -0.42343  -0.40625  -0.39435  -0.39075
 Alpha  occ. eigenvalues --   -0.37944  -0.36929  -0.36132  -0.34826  -0.32538
 Alpha  occ. eigenvalues --   -0.31321
 Alpha virt. eigenvalues --    0.00265   0.01204   0.01361   0.01611   0.02754
 Alpha virt. eigenvalues --    0.03076   0.03173   0.03637   0.04081   0.05105
 Alpha virt. eigenvalues --    0.05265   0.05454   0.06095   0.06368   0.07744

 Mulliken charges:
               1
     1  C   -0.625859
     2  C   -0.197793
     3  C    0.304909
     4  C   -0.443027
     5  C   -0.224206
     6  O   -0.368498
     7  C   -0.277794
     8  C   -0.179010
     9  C   -0.228398
    10  C   -0.283205
    11  O   -0.324907
    12  O   -0.326852
    13  C   -0.462662
    14  H    0.207425
    15  H    0.204003
    16  H    0.255817
    17  H    0.255288
    18  H    0.176892
    19  H    0.183292
    20  H    0.210233
    21  H    0.153465
    22  H    0.175606
    23  H    0.208289
    24  H    0.233157
    25  H    0.185042
    26  H    0.200347
    27  H    0.187315
    28  H    0.184128
    29  H    0.175432
    30  H    0.197903
    31  H    0.243665
 Sum of Mulliken charges =  -0.00000

 Dipole moment (field-independent basis, Debye):
    X=             -2.6326    Y=              1.4367    Z=             -3.9927  Tot=              4.9936
 Quadrupole moment (field-independent basis, Debye-Ang):
   XX=            -75.0129   YY=            -82.3655   ZZ=            -77.9075
   XY=              9.0687   XZ=             -1.6530   YZ=             -0.7709

  Exact polarizability: 179.718   0.885 171.770   1.181  -2.027 171.174
 Approx polarizability: 144.348  -0.132 141.800   0.543  -1.827 144.172

 ******    1 imaginary frequencies (negative Signs) ******

                      1                      2                      3
                      A                      A                      A
 Frequencies --    -41.4409                47.9960                97.3602
 Red. masses --      3.7825                 3.6106                 3.3409
 Frc consts  --      0.0038                 0.0049                 0.0187
 IR Inten    --      7.9125                 0.4050                 0.9250

                      4                      5                      6
                      A                      A                      A
 Frequencies --    118.6727               181.6005               218.0867
 Red. masses --      3.9225                 4.0679                 3.3178
 Frc consts  --      0.0325                 0.0790                 0.0930
 IR Inten    --      1.0050                10.3598                 1.9708

                      7                      8                      9
                      A                      A                      A
 Frequencies --    238.3646               294.4885               343.1695
 Red. masses --      2.8927                 2.3055                 2.0457
 Frc consts  --      0.0968                 0.1178                 0.1419
 IR Inten    --      5.9303                 7.3073                 7.0595

                     10                     11                     12
                      A                      A                      A
 Frequencies --    354.2815               413.8543               430.6350
 Red. masses --      2.2291                 2.1808                 2.1753
 Frc consts  --      0.1648                 0.2201                 0.2377
 IR Inten    --      2.4945                 7.3776                11.3935

                     13                     14                     15
                      A                      A                      A
 Frequencies --    438.6669               471.1395               519.8061
 Red. masses --      3.1834                 4.0372                 2.9825
 Frc consts  --      0.3609                 0.5280                 0.4748
 IR Inten    --      2.4979                 8.7730                 4.7599

                     16                     17                     18
                      A                      A                      A
 Frequencies --    525.0079               582.3536               673.3334
 Red. masses --      2.3632                 2.5080                 2.6711
 Frc consts  --      0.3838                 0.5011                 0.7135
 IR Inten    --      8.4228                15.2563                 3.5596

                     19                     20                     21
                      A                      A                      A
 Frequencies --    752.3968               797.4585               838.4501
 Red. masses --      2.7896                 2.4926                 2.0837
 Frc consts  --      0.9304                 0.9340                 0.8630
 IR Inten    --      5.9148                 9.7109                12.0044

                     22                     23                     24
                      A                      A                      A
 Frequencies --    855.3299               857.7193               878.2879
 Red. masses --      2.3156                 2.7307                 1.6409
 Frc consts  --      0.9981                 1.1836                 0.7458
 IR Inten    --      1.4663                 2.7008                16.0408

                     25                     26                     27
                      A                      A                      A
 Frequencies --    892.0583               904.4182               915.6329
 Red. masses --      2.5713                 2.2928                 2.3198
 Frc consts  --      1.2055                 1.1050                 1.1459
 IR Inten    --     36.9141                48.7020                57.3544

                     28                     29                     30
                      A                      A                      A
 Frequencies --    929.4691               946.3498               988.5026
 Red. masses --      2.0953                 1.5247                 2.0121
 Frc consts  --      1.0665                 0.8045                 1.1584
 IR Inten    --     14.3814                 5.7072                28.6085

                     31                     32                     33
                      A                      A                      A
 Frequencies --   1028.8491              1041.4399              1058.1305
 Red. masses --      2.1094                 2.3054                 1.9447
 Frc consts  --      1.3156                 1.4732                 1.2829
 IR Inten    --     16.9011                23.7403                46.2141

                     34                     35                     36
                      A                      A                      A
 Frequencies --   1066.6872              1072.9086              1082.8891
 Red. masses --      1.9676                 1.4803                 2.3364
 Frc consts  --      1.3190                 1.0040                 1.6142
 IR Inten    --     52.6938                13.6087               316.5004

                     37                     38                     39
                      A                      A                      A
 Frequencies --   1104.0002              1144.9881              1153.2481
 Red. masses --      1.7143                 2.2740                 2.4437
 Frc consts  --      1.2311                 1.7564                 1.9149
 IR Inten    --     28.8110                52.9218               125.7542

                     40                     41                     42
                      A                      A                      A
 Frequencies --   1162.0797              1192.8811              1209.9177
 Red. masses --      2.5076                 2.1021                 1.4120
 Frc consts  --      1.9952                 1.7624                 1.2178
 IR Inten    --    121.8708               101.0408                31.4013

                     43                     44                     45
                      A                      A                      A
 Frequencies --   1221.9510              1241.3170              1266.6830
 Red. masses --      1.3464                 1.7145                 2.3981
 Frc consts  --      1.1845                 1.5566                 2.2670
 IR Inten    --     22.1355                46.2718               198.6786

                     46                     47                     48
                      A                      A                      A
 Frequencies --   1291.0367              1294.4160              1322.6852
 Red. masses --      1.2209                 1.1555                 1.1886
 Frc consts  --      1.1989                 1.1407                 1.2252
 IR Inten    --     41.1903                25.8665                25.8985

                     49                     50                     51
                      A                      A                      A
 Frequencies --   1336.8158              1354.2282              1360.4603
 Red. masses --      1.2120                 1.4020                 1.4408
 Frc consts  --      1.2761                 1.5149                 1.5712
 IR Inten    --     23.7951                20.7734                13.9772

                     52                     53                     54
                      A                      A                      A
 Frequencies --   1365.7116              1381.9407              1389.4844
 Red. masses --      1.4031                 1.4621                 1.4791
 Frc consts  --      1.5419                 1.6451                 1.6825
 IR Inten    --      3.2287                 6.0406                10.9071

                     55                     56                     57
                      A                      A                      A
 Frequencies --   1391.8790              1395.2966              1405.9532
 Red. masses --      1.7121                 1.4235                 1.3841
 Frc consts  --      1.9543                 1.6328                 1.6120
 IR Inten    --     25.0155                15.8901                 5.5084

                     58                     59                     60
                      A                      A                      A
 Frequencies --   1408.4133              1429.1148              1432.5462
 Red. masses --      1.3940                 1.3322                 1.3259
 Frc consts  --      1.6293                 1.6031                 1.6032
 IR Inten    --      4.4194                 7.4411                11.3771

                     61                     62                     63
                      A                      A                      A
 Frequencies --   1451.8381              1469.2272              1471.1498
 Red. masses --      1.2909                 1.0907                 1.1035
 Frc consts  --      1.6032                 1.3871                 1.4072
 IR Inten    --     23.4145                 5.1858                 4.7171

                     64                     65                     66
                      A                      A                      A
 Frequencies --   1477.3395              1479.0028              1489.3498
 Red. masses --      1.0917                 1.1229                 1.0885
 Frc consts  --      1.4038                 1.4472                 1.4226
 IR Inten    --     10.0339                12.4305                 4.5909

                     67                     68                     69
                      A                      A                      A
 Frequencies --   1499.7690              1503.5311              1534.3569
 Red. masses --      1.1096                 1.0998                 1.0918
 Frc consts  --      1.4705                 1.4648                 1.5144
 IR Inten    --     17.7599                 5.8807                 7.9609

                     70                     71                     72
                      A                      A                      A
 Frequencies --   3030.3594              3045.5380              3064.9759
 Red. masses --      1.0699                 1.0678                 1.0670
 Frc consts  --      5.7886                 5.8354                 5.9055
 IR Inten    --     76.7478                57.7056                22.5858

                     73                     74                     75
                      A                      A                      A
 Frequencies --   3067.3358              3069.9177              3075.6347
 Red. masses --      1.0686                 1.0674                 1.0612
 Frc consts  --      5.9238                 5.9269                 5.9145
 IR Inten    --     31.8577                17.1940                46.2492

                     76                     77                     78
                      A                      A                      A
 Frequencies --   3077.7024              3081.7286              3114.2946
 Red. masses --      1.0611                 1.0639                 1.0905
 Frc consts  --      5.9221                 5.9530                 6.2313
 IR Inten    --     46.0862                45.3311                88.4230

                     79                     80                     81
                      A                      A                      A
 Frequencies --   3117.7358              3120.2917              3122.9069
 Red. masses --      1.0943                 1.0979                 1.1016
 Frc consts  --      6.2668                 6.2982                 6.3297
 IR Inten    --     41.8526                24.5979                32.4174

                     82                     83                     84
                      A                      A                      A
 Frequencies --   3125.5955              3131.7836              3136.3221
 Red. masses --      1.0877                 1.0995                 1.0959
 Frc consts  --      6.2604                 6.3537                 6.3510
 IR Inten    --     84.4483                30.3144                49.2462

                     85                     86                     87
                      A                      A                      A
 Frequencies --   3137.9349              3139.7860              3142.9505
 Red. masses --      1.1022                 1.0972                 1.0968
 Frc consts  --      6.3942                 6.3729                 6.3837
 IR Inten    --     73.9866                37.0070                11.5720

 - Thermochemistry -
 -------------------
 Temperature   298.150 Kelvin.  Pressure   1.00000 Atm.
 Atom     1 has atomic number  6 and mass  12.00000

 Molecular mass:   186.12559 amu.
 Principal axes and moments of inertia in atomic units:
                           1         2         3
     Eigenvalues --  1053.336003679.184904003.44639
           X            0.99984   0.01755   0.00299
           Y           -0.01751   0.99978  -0.01184
           Z           -0.00320   0.01179   0.99993
 This molecule is an asymmetric top.
 Rotational symmetry number  1.
 Warning -- assumption of classical behavior for rotation
           may cause significant error
 Rotational temperatures (Kelvin)      0.08223     0.02354     0.02163
 Rotational constants (GHZ):           1.71336     0.49053     0.45080
    1 imaginary frequencies ignored.
 Zero-point vibrational energy     737445.1 (Joules/Mol)
                                  176.25362 (Kcal/Mol)
 Warning -- explicit consideration of  16 degrees of freedom as
           vibrations may cause significant error
 Vibrational temperatures:     69.06   140.08   170.74   261.28   313.78
          (Kelvin)            342.95   423.70   493.74   509.73   595.44
                              619.59   631.14   677.86   747.89   755.37
                              837.88   968.78  1082.53  1147.36  1206.34
                             1230.63  1234.07  1263.66  1283.47  1301.26
                             1317.39  1337.30  1361.59  1422.23  1480.28
                             1498.40  1522.41  1534.72  1543.68  1558.04
                             1588.41  1647.38  1659.27  1671.97  1716.29
                             1740.80  1758.11  1785.98  1822.47  1857.51
                             1862.38  1903.05  1923.38  1948.43  1957.40
                             1964.95  1988.30  1999.16  2002.60  2007.52
                             2022.85  2026.39  2056.18  2061.11  2088.87
                             2113.89  2116.66  2125.56  2127.96  2142.84
                             2157.83  2163.25  2207.60  4360.01  4381.85
                             4409.82  4413.21  4416.93  4425.15  4428.13
                             4433.92  4480.78  4485.73  4489.40  4493.17
                             4497.03  4505.94  4512.47  4514.79  4517.45
                             4522.00

 Zero-point correction=                           0.280878 (Hartree/Particle)
 Thermal correction to Energy=                    0.291804
 Thermal correction to Enthalpy=                  0.292748
 Thermal correction to Gibbs Free Energy=         0.243995
 Sum of electronic and zero-point Energies=           -617.214720
 Sum of electronic and thermal Energies=              -617.203793
 Sum of electronic and thermal Enthalpies=            -617.202849
 Sum of electronic and thermal Free Energies=         -617.251602

                     E (Thermal)             CV                S
                      KCal/Mol        Cal/Mol-Kelvin    Cal/Mol-Kelvin
 Total                  183.110             44.748            102.610
 Electronic               0.000              0.000              0.000
 Translational            0.889              2.981             41.570
 Rotational               0.889              2.981             31.118
 Vibrational            181.332             38.786             29.922
 Vibration     1          0.595              1.978              4.898
 Vibration     2          0.603              1.951              3.506
 Vibration     3          0.609              1.934              3.122
 Vibration     4          0.630              1.865              2.312
 Vibration     5          0.646              1.814              1.975
 Vibration     6          0.656              1.782              1.815
 Vibration     7          0.689              1.684              1.448
 Vibration     8          0.722              1.589              1.197
 Vibration     9          0.730              1.566              1.147
 Vibration    10          0.777              1.440              0.913
 Vibration    11          0.792              1.404              0.857
 Vibration    12          0.799              1.386              0.831
 Vibration    13          0.828              1.314              0.734
 Vibration    14          0.875              1.206              0.610
 Vibration    15          0.880              1.195              0.598
 Vibration    16          0.939              1.069              0.481

 Optimization completed.
    -- Stationary point found.
 Normal termination of Gaussian 16 at Fri Mar  8 20:36:23 2019.
