 Gaussian 16, Revision B.01,
 Gaussian 16:  ES64L-G16RevB.01 20-Dec-2017

 ----------------------------------------------------------------------
 #M062X/6-311++G(2d,2p) opt=ModRedundant freq=noraman SCRF=(SMD,solvent
 =water)
 ----------------------------------------------------------------------

 --------------------------------
 4c1_a1_a4_4c1_PHI.inp_extract_12
 --------------------------------
 Symbolic Z-matrix:
 Charge =  0 Multiplicity = 1

 SCF Done:  E(RM062X) =  -617.495839641     A.U. after   12 cycles
 SCF Done:  E(RM062X) =  -617.496400820     A.U. after   10 cycles
 SCF Done:  E(RM062X) =  -617.497561886     A.U. after   11 cycles
 SCF Done:  E(RM062X) =  -617.497876811     A.U. after   10 cycles
 SCF Done:  E(RM062X) =  -617.497927136     A.U. after    9 cycles
 SCF Done:  E(RM062X) =  -617.497929884     A.U. after    8 cycles
 SCF Done:  E(RM062X) =  -617.497930577     A.U. after    8 cycles
 SCF Done:  E(RM062X) =  -617.497930743     A.U. after    6 cycles
 Optimization completed.
    -- Stationary point found.
 Normal termination of Gaussian 16 at Fri Mar  8 17:49:33 2019.

 ----------------------------------------------------------------------
 #N Geom=AllCheck Guess=TCheck SCRF=Check GenChk RM062X/6-311++G(2d,2p)
  Freq
 ----------------------------------------------------------------------

 Structure from the checkpoint file:  "4c1_a1_a4_4c1_PHI.inp_extract_12.chk"
 --------------------------------
 4c1_a1_a4_4c1_PHI.inp_extract_12
 --------------------------------
 Charge =  0 Multiplicity = 1

                         Standard orientation:
 ---------------------------------------------------------------------
 Center     Atomic      Atomic             Coordinates (Angstroms)
 Number     Number       Type             X           Y           Z
 ---------------------------------------------------------------------
      1          6           0       -1.746463   -1.319827    0.351722
      2          6           0        1.151484   -0.368121   -1.106922
      3          6           0       -0.756452   -0.171669    0.488907
      4          6           0        3.320787    0.368664    0.703154
      5          6           0       -3.564224    0.128863   -0.033016
      6          8           0       -2.822474   -0.990464   -0.516539
      7          6           0        2.507720   -0.874928    1.049675
      8          6           0        2.439676    1.339974   -0.054391
      9          6           0        1.787935   -1.417238   -0.191435
     10          6           0       -2.691452    1.368588    0.047154
     11          8           0        1.996982    0.751894   -1.280477
     12          8           0       -0.148739    0.090250   -0.778455
     13          6           0       -1.482012    1.091376    0.938452
     14          1           0       -2.136544   -1.577237    1.343101
     15          1           0       -1.260410   -2.194966   -0.075993
     16          1           0        1.060464   -0.786378   -2.107722
     17          1           0       -0.011236   -0.447053    1.228479
     18          1           0        4.173061    0.105744    0.072323
     19          1           0        3.706118    0.844726    1.604905
     20          1           0       -4.393827    0.266085   -0.723424
     21          1           0       -3.968683   -0.114912    0.956476
     22          1           0        1.800807   -0.618939    1.839017
     23          1           0        3.151577   -1.657886    1.449750
     24          1           0        2.975213    2.243897   -0.335457
     25          1           0        1.570574    1.627934    0.547279
     26          1           0        2.528800   -1.916122   -0.818675
     27          1           0        1.045442   -2.169109    0.074509
     28          1           0       -3.278334    2.197877    0.442400
     29          1           0       -2.367512    1.642491   -0.958374
     30          1           0       -0.785584    1.929945    0.939020
     31          1           0       -1.818075    0.936381    1.966360
 ---------------------------------------------------------------------

 SCF Done:  E(RM062X) =  -617.497930743     A.U. after    1 cycles

 The electronic state is 1-A.
 Alpha  occ. eigenvalues --  -19.62950 -19.62853 -19.62725 -10.63477 -10.58243
 Alpha  occ. eigenvalues --  -10.57344 -10.57293 -10.57276 -10.52948 -10.52574
 Alpha  occ. eigenvalues --  -10.52509 -10.52239 -10.52208  -1.19314  -1.16135
 Alpha  occ. eigenvalues --   -1.12894  -0.89959  -0.89630  -0.86517  -0.84404
 Alpha  occ. eigenvalues --   -0.74260  -0.73589  -0.72935  -0.70515  -0.65931
 Alpha  occ. eigenvalues --   -0.61932  -0.59169  -0.58319  -0.56715  -0.54865
 Alpha  occ. eigenvalues --   -0.54208  -0.52664  -0.51820  -0.50059  -0.49519
 Alpha  occ. eigenvalues --   -0.48617  -0.46381  -0.45512  -0.45391  -0.44599
 Alpha  occ. eigenvalues --   -0.42949  -0.42086  -0.40720  -0.39020  -0.38919
 Alpha  occ. eigenvalues --   -0.37978  -0.36624  -0.36413  -0.35293  -0.33000
 Alpha  occ. eigenvalues --   -0.31483
 Alpha virt. eigenvalues --    0.00301   0.01263   0.01389   0.01614   0.02746
 Alpha virt. eigenvalues --    0.03053   0.03187   0.03744   0.03945   0.05060
 Alpha virt. eigenvalues --    0.05306   0.05395   0.06139   0.06323   0.07764

 Mulliken charges:
               1
     1  C   -0.381577
     2  C    0.031488
     3  C    0.035228
     4  C   -0.321418
     5  C   -0.208176
     6  O   -0.368113
     7  C   -0.281714
     8  C   -0.231515
     9  C   -0.375537
    10  C   -0.265340
    11  O   -0.326106
    12  O   -0.388903
    13  C   -0.464159
    14  H    0.201970
    15  H    0.223855
    16  H    0.267891
    17  H    0.253047
    18  H    0.176239
    19  H    0.168666
    20  H    0.211115
    21  H    0.151237
    22  H    0.172707
    23  H    0.193330
    24  H    0.230550
    25  H    0.127454
    26  H    0.231520
    27  H    0.174029
    28  H    0.189622
    29  H    0.174431
    30  H    0.175418
    31  H    0.222759
 Sum of Mulliken charges =  -0.00000

 Dipole moment (field-independent basis, Debye):
    X=              1.2671    Y=             -0.6462    Z=              5.5952  Tot=              5.7732
 Quadrupole moment (field-independent basis, Debye-Ang):
   XX=            -76.7298   YY=            -77.6201   ZZ=            -82.9547
   XY=             -7.1134   XZ=             -1.4173   YZ=              1.9231

  Exact polarizability: 181.654  -1.089 172.122  -0.273   0.839 168.902
 Approx polarizability: 145.969  -0.773 141.209  -0.963   0.774 143.058

 ******    1 imaginary frequencies (negative Signs) ******

                      1                      2                      3
                      A                      A                      A
 Frequencies --    -46.5149                52.9295                98.8941
 Red. masses --      4.0065                 4.1285                 3.4392
 Frc consts  --      0.0051                 0.0068                 0.0198
 IR Inten    --      3.2462                 1.9080                 0.5827

                      4                      5                      6
                      A                      A                      A
 Frequencies --    136.4233               195.4467               211.1553
 Red. masses --      3.7671                 2.9293                 3.4517
 Frc consts  --      0.0413                 0.0659                 0.0907
 IR Inten    --      3.7992                 5.3577                 4.1366

                      7                      8                      9
                      A                      A                      A
 Frequencies --    251.4958               296.5466               343.6791
 Red. masses --      2.3223                 2.5437                 1.9272
 Frc consts  --      0.0865                 0.1318                 0.1341
 IR Inten    --      1.0106                 2.9852                 2.0753

                     10                     11                     12
                      A                      A                      A
 Frequencies --    379.3462               408.9372               429.8364
 Red. masses --      2.2727                 2.3023                 2.8474
 Frc consts  --      0.1927                 0.2268                 0.3100
 IR Inten    --      7.1912                14.0899                 2.7964

                     13                     14                     15
                      A                      A                      A
 Frequencies --    441.0550               487.9121               519.9997
 Red. masses --      2.9833                 3.4460                 2.7647
 Frc consts  --      0.3419                 0.4833                 0.4405
 IR Inten    --      8.8175                 7.6321                 7.1217

                     16                     17                     18
                      A                      A                      A
 Frequencies --    525.6922               554.8158               682.5787
 Red. masses --      2.9197                 2.1370                 2.6187
 Frc consts  --      0.4754                 0.3876                 0.7189
 IR Inten    --      9.4103                 7.1282                11.3694

                     19                     20                     21
                      A                      A                      A
 Frequencies --    756.0639               798.1091               836.0964
 Red. masses --      2.6610                 2.3184                 2.0776
 Frc consts  --      0.8962                 0.8701                 0.8557
 IR Inten    --      9.4722                 3.7094                 7.0747

                     22                     23                     24
                      A                      A                      A
 Frequencies --    856.6383               864.9100               877.0728
 Red. masses --      3.2993                 2.2847                 1.6563
 Frc consts  --      1.4265                 1.0070                 0.7507
 IR Inten    --     10.7171                21.5366                16.4884

                     25                     26                     27
                      A                      A                      A
 Frequencies --    902.5364               904.9137               907.1393
 Red. masses --      2.4910                 2.3026                 2.1536
 Frc consts  --      1.1955                 1.1109                 1.0441
 IR Inten    --     50.0852                23.8733                48.5938

                     28                     29                     30
                      A                      A                      A
 Frequencies --    938.0677               944.4276               990.3197
 Red. masses --      1.9974                 1.8061                 1.8642
 Frc consts  --      1.0356                 0.9491                 1.0772
 IR Inten    --      4.1235                11.1526                 7.2259

                     31                     32                     33
                      A                      A                      A
 Frequencies --   1025.4793              1045.2120              1055.6730
 Red. masses --      2.0626                 2.4516                 1.9430
 Frc consts  --      1.2780                 1.5780                 1.2758
 IR Inten    --     18.1381                16.9021                33.1848

                     34                     35                     36
                      A                      A                      A
 Frequencies --   1065.0880              1080.3759              1082.8142
 Red. masses --      2.1348                 1.5170                 1.7621
 Frc consts  --      1.4268                 1.0433                 1.2173
 IR Inten    --     88.8353               120.5134               114.5429

                     37                     38                     39
                      A                      A                      A
 Frequencies --   1098.1053              1144.3720              1159.3592
 Red. masses --      1.6905                 2.7953                 2.1624
 Frc consts  --      1.2010                 2.1568                 1.7124
 IR Inten    --     94.8995               141.7953                34.5842

                     40                     41                     42
                      A                      A                      A
 Frequencies --   1173.9074              1203.6708              1218.2626
 Red. masses --      2.6868                 2.4918                 1.4984
 Frc consts  --      2.1815                 2.1271                 1.3103
 IR Inten    --    168.6637               101.4559                97.5687

                     43                     44                     45
                      A                      A                      A
 Frequencies --   1225.6660              1240.2907              1258.4492
 Red. masses --      1.3679                 1.8016                 2.1508
 Frc consts  --      1.2107                 1.6329                 2.0068
 IR Inten    --     41.6368                37.8826               127.4002

                     46                     47                     48
                      A                      A                      A
 Frequencies --   1295.1787              1301.5122              1321.6122
 Red. masses --      1.2119                 1.1850                 1.1937
 Frc consts  --      1.1977                 1.1827                 1.2285
 IR Inten    --     72.0052                18.4628                25.5387

                     49                     50                     51
                      A                      A                      A
 Frequencies --   1335.5552              1355.3968              1363.3606
 Red. masses --      1.2566                 1.5707                 1.3284
 Frc consts  --      1.3206                 1.7001                 1.4548
 IR Inten    --     16.5382                 0.6971                 5.2600

                     52                     53                     54
                      A                      A                      A
 Frequencies --   1366.4949              1380.0478              1386.3904
 Red. masses --      1.3984                 1.4207                 1.4252
 Frc consts  --      1.5386                 1.5942                 1.6139
 IR Inten    --      1.8755                12.4705                 6.6001

                     55                     56                     57
                      A                      A                      A
 Frequencies --   1390.3853              1400.8898              1407.5870
 Red. masses --      1.6422                 1.3225                 1.3566
 Frc consts  --      1.8705                 1.5291                 1.5837
 IR Inten    --     12.7040                15.3803                 2.4124

                     58                     59                     60
                      A                      A                      A
 Frequencies --   1411.0462              1426.8637              1435.3734
 Red. masses --      1.4093                 1.3421                 1.3347
 Frc consts  --      1.6532                 1.6099                 1.6201
 IR Inten    --     13.0897                27.3428                 5.8273

                     61                     62                     63
                      A                      A                      A
 Frequencies --   1447.1606              1470.7363              1470.8641
 Red. masses --      1.3151                 1.0922                 1.1038
 Frc consts  --      1.6228                 1.3919                 1.4069
 IR Inten    --     16.7821                 8.6605                 3.0300

                     64                     65                     66
                      A                      A                      A
 Frequencies --   1475.8888              1480.4082              1486.8529
 Red. masses --      1.0875                 1.1203                 1.0886
 Frc consts  --      1.3956                 1.4466                 1.4180
 IR Inten    --     11.0888                17.9564                 5.6882

                     67                     68                     69
                      A                      A                      A
 Frequencies --   1501.1333              1503.5815              1513.3120
 Red. masses --      1.1060                 1.1013                 1.0935
 Frc consts  --      1.4684                 1.4669                 1.4755
 IR Inten    --     18.1818                 4.9168                 5.0559

                     70                     71                     72
                      A                      A                      A
 Frequencies --   3029.4578              3037.1321              3044.9535
 Red. masses --      1.0700                 1.0681                 1.0694
 Frc consts  --      5.7858                 5.8049                 5.8419
 IR Inten    --     79.1197                64.3880                51.0138

                     73                     74                     75
                      A                      A                      A
 Frequencies --   3068.0220              3071.9145              3078.7108
 Red. masses --      1.0635                 1.0630                 1.0611
 Frc consts  --      5.8981                 5.9099                 5.9260
 IR Inten    --     41.4728                34.8947                31.2566

                     76                     77                     78
                      A                      A                      A
 Frequencies --   3080.4974              3082.5810              3114.6599
 Red. masses --      1.0669                 1.0611                 1.0937
 Frc consts  --      5.9650                 5.9405                 6.2515
 IR Inten    --     11.4070                28.5567                69.3561

                     79                     80                     81
                      A                      A                      A
 Frequencies --   3117.0263              3118.7176              3123.3634
 Red. masses --      1.0920                 1.1006                 1.1020
 Frc consts  --      6.2513                 6.3074                 6.3339
 IR Inten    --     30.9923                31.0205                38.7986

                     82                     83                     84
                      A                      A                      A
 Frequencies --   3125.4775              3129.3588              3135.9735
 Red. masses --      1.1042                 1.1022                 1.0962
 Frc consts  --      6.3550                 6.3594                 6.3517
 IR Inten    --     60.9159                90.8870                28.7492

                     85                     86                     87
                      A                      A                      A
 Frequencies --   3137.3882              3139.6390              3173.4311
 Red. masses --      1.0967                 1.0966                 1.0830
 Frc consts  --      6.3604                 6.3687                 6.4257
 IR Inten    --     39.1360                40.6767                25.9071

 - Thermochemistry -
 -------------------
 Temperature   298.150 Kelvin.  Pressure   1.00000 Atm.
 Atom     1 has atomic number  6 and mass  12.00000

 Molecular mass:   186.12559 amu.
 Principal axes and moments of inertia in atomic units:
                           1         2         3
     Eigenvalues --  1054.178483837.673594080.79193
           X            0.99991  -0.01323   0.00322
           Y            0.01317   0.99975   0.01817
           Z           -0.00346  -0.01813   0.99983
 This molecule is an asymmetric top.
 Rotational symmetry number  1.
 Warning -- assumption of classical behavior for rotation
           may cause significant error
 Rotational temperatures (Kelvin)      0.08216     0.02257     0.02122
 Rotational constants (GHZ):           1.71199     0.47027     0.44225
    1 imaginary frequencies ignored.
 Zero-point vibrational energy     738130.0 (Joules/Mol)
                                  176.41731 (Kcal/Mol)
 Warning -- explicit consideration of  16 degrees of freedom as
           vibrations may cause significant error
 Vibrational temperatures:     76.15   142.29   196.28   281.20   303.81
          (Kelvin)            361.85   426.66   494.48   545.79   588.37
                              618.44   634.58   702.00   748.16   756.35
                              798.26   982.08  1087.81  1148.30  1202.96
                             1232.51  1244.41  1261.91  1298.55  1301.97
                             1305.17  1349.67  1358.82  1424.85  1475.44
                             1503.83  1518.88  1532.42  1554.42  1557.93
                             1579.93  1646.50  1668.06  1688.99  1731.81
                             1752.81  1763.46  1784.50  1810.63  1863.47
                             1872.59  1901.51  1921.57  1950.11  1961.57
                             1966.08  1985.58  1994.71  2000.45  2015.57
                             2025.20  2030.18  2052.94  2065.18  2082.14
                             2116.06  2116.25  2123.47  2129.98  2139.25
                             2159.80  2163.32  2177.32  4358.71  4369.76
                             4381.01  4414.20  4419.80  4429.58  4432.15
                             4435.15  4481.30  4484.71  4487.14  4493.82
                             4496.87  4502.45  4511.97  4514.00  4517.24
                             4565.86

 Zero-point correction=                           0.281139 (Hartree/Particle)
 Thermal correction to Energy=                    0.291955
 Thermal correction to Enthalpy=                  0.292899
 Thermal correction to Gibbs Free Energy=         0.244495
 Sum of electronic and zero-point Energies=           -617.216792
 Sum of electronic and thermal Energies=              -617.205976
 Sum of electronic and thermal Enthalpies=            -617.205032
 Sum of electronic and thermal Free Energies=         -617.253436

                     E (Thermal)             CV                S
                      KCal/Mol        Cal/Mol-Kelvin    Cal/Mol-Kelvin
 Total                  183.204             44.600            101.875
 Electronic               0.000              0.000              0.000
 Translational            0.889              2.981             41.570
 Rotational               0.889              2.981             31.180
 Vibrational            181.427             38.638             29.125
 Vibration     1          0.596              1.976              4.705
 Vibration     2          0.604              1.950              3.476
 Vibration     3          0.614              1.917              2.853
 Vibration     4          0.636              1.846              2.176
 Vibration     5          0.643              1.824              2.034
 Vibration     6          0.663              1.760              1.720
 Vibration     7          0.690              1.680              1.436
 Vibration     8          0.722              1.588              1.195
 Vibration     9          0.749              1.514              1.042
 Vibration    10          0.773              1.451              0.930
 Vibration    11          0.791              1.405              0.859
 Vibration    12          0.801              1.381              0.823
 Vibration    13          0.844              1.277              0.689
 Vibration    14          0.875              1.206              0.610
 Vibration    15          0.881              1.193              0.597
 Vibration    16          0.910              1.129              0.534

 Optimization completed.
    -- Stationary point found.
 Normal termination of Gaussian 16 at Fri Mar  8 18:52:53 2019.
