 Gaussian 16, Revision B.01,
 Gaussian 16:  ES64L-G16RevB.01 20-Dec-2017

 ----------------------------------------------------------------------
 #M062X/6-311++G(2d,2p) opt=ModRedundant freq=noraman SCRF=(SMD,solvent
 =water)
 ----------------------------------------------------------------------

 -------------------------------
 4c1_a1_a4_4c1_PHI.inp_extract_6
 -------------------------------
 Symbolic Z-matrix:
 Charge =  0 Multiplicity = 1

 SCF Done:  E(RM062X) =  -617.503462057     A.U. after   12 cycles
 SCF Done:  E(RM062X) =  -617.505141991     A.U. after   10 cycles
 SCF Done:  E(RM062X) =  -617.505252509     A.U. after    9 cycles
 SCF Done:  E(RM062X) =  -617.505266741     A.U. after    8 cycles
 SCF Done:  E(RM062X) =  -617.505268278     A.U. after    8 cycles
 SCF Done:  E(RM062X) =  -617.505268302     A.U. after    7 cycles
 SCF Done:  E(RM062X) =  -617.505268226     A.U. after    6 cycles
 Optimization completed.
    -- Stationary point found.
 Normal termination of Gaussian 16 at Fri Mar  8 14:47:20 2019.

 ----------------------------------------------------------------------
 #N Geom=AllCheck Guess=TCheck SCRF=Check GenChk RM062X/6-311++G(2d,2p)
  Freq
 ----------------------------------------------------------------------

 Structure from the checkpoint file:  "4c1_a1_a4_4c1_PHI.inp_extract_6.chk"
 -------------------------------
 4c1_a1_a4_4c1_PHI.inp_extract_6
 -------------------------------
 Charge =  0 Multiplicity = 1

                         Standard orientation:
 ---------------------------------------------------------------------
 Center     Atomic      Atomic             Coordinates (Angstroms)
 Number     Number       Type             X           Y           Z
 ---------------------------------------------------------------------
      1          6           0        2.045209   -0.764409   -1.093968
      2          6           0       -1.120032   -0.554014   -0.771924
      3          6           0        1.078636    0.378833   -0.823366
      4          6           0       -3.412774    0.220114    0.794818
      5          6           0        3.401537   -0.201560    0.749236
      6          8           0        2.656146   -1.231680    0.100713
      7          6           0       -2.683794    1.273398   -0.034734
      8          6           0       -2.445964   -0.880853    1.184765
      9          6           0       -2.005594    0.599032   -1.224351
     10          6           0        2.501313    0.951053    1.158109
     11          8           0       -1.823668   -1.468811    0.032434
     12          8           0       -0.010117   -0.087087   -0.020582
     13          6           0        1.777796    1.501030   -0.070043
     14          1           0        2.814365   -0.424810   -1.796649
     15          1           0        1.522614   -1.614599   -1.529866
     16          1           0       -0.763263   -1.132534   -1.626186
     17          1           0        0.703094    0.749466   -1.779502
     18          1           0       -4.229708   -0.210691    0.210870
     19          1           0       -3.840870    0.652631    1.699532
     20          1           0        3.875376   -0.665362    1.611805
     21          1           0        4.184234    0.152186    0.067834
     22          1           0       -1.932955    1.769513    0.584898
     23          1           0       -3.374171    2.040465   -0.383593
     24          1           0       -2.952056   -1.701929    1.687095
     25          1           0       -1.673413   -0.492495    1.852787
     26          1           0       -2.759140    0.188806   -1.899905
     27          1           0       -1.405355    1.307613   -1.795179
     28          1           0        3.101977    1.728196    1.630796
     29          1           0        1.779643    0.595755    1.895951
     30          1           0        1.048463    2.263925    0.202598
     31          1           0        2.504275    1.958749   -0.745058
 ---------------------------------------------------------------------

 SCF Done:  E(RM062X) =  -617.505268226     A.U. after    1 cycles

 The electronic state is 1-A.
 Alpha  occ. eigenvalues --  -19.63265 -19.62870 -19.62795 -10.63270 -10.58385
 Alpha  occ. eigenvalues --  -10.57431 -10.57345 -10.57306 -10.52612 -10.52370
 Alpha  occ. eigenvalues --  -10.52330 -10.52304 -10.52204  -1.19749  -1.16175
 Alpha  occ. eigenvalues --   -1.13120  -0.90034  -0.89420  -0.86389  -0.84381
 Alpha  occ. eigenvalues --   -0.73909  -0.73105  -0.72838  -0.71165  -0.65935
 Alpha  occ. eigenvalues --   -0.61923  -0.59196  -0.58235  -0.56704  -0.55361
 Alpha  occ. eigenvalues --   -0.53774  -0.53149  -0.51604  -0.50272  -0.49411
 Alpha  occ. eigenvalues --   -0.47458  -0.46096  -0.45896  -0.45159  -0.45006
 Alpha  occ. eigenvalues --   -0.43481  -0.42459  -0.40475  -0.39915  -0.38444
 Alpha  occ. eigenvalues --   -0.37989  -0.37590  -0.36471  -0.34631  -0.33119
 Alpha  occ. eigenvalues --   -0.31327
 Alpha virt. eigenvalues --    0.00337   0.01288   0.01316   0.01655   0.02752
 Alpha virt. eigenvalues --    0.02936   0.03164   0.03806   0.03900   0.05041
 Alpha virt. eigenvalues --    0.05255   0.05521   0.05802   0.06168   0.07586

 Mulliken charges:
               1
     1  C   -0.418864
     2  C   -0.080566
     3  C    0.126133
     4  C   -0.373498
     5  C   -0.180955
     6  O   -0.364188
     7  C   -0.337999
     8  C   -0.247929
     9  C   -0.157230
    10  C   -0.340994
    11  O   -0.355732
    12  O   -0.376663
    13  C   -0.408224
    14  H    0.198529
    15  H    0.214581
    16  H    0.291640
    17  H    0.247182
    18  H    0.171796
    19  H    0.174185
    20  H    0.210215
    21  H    0.156878
    22  H    0.168513
    23  H    0.187696
    24  H    0.223146
    25  H    0.170647
    26  H    0.204256
    27  H    0.170819
    28  H    0.184067
    29  H    0.165399
    30  H    0.162309
    31  H    0.214850
 Sum of Mulliken charges =  -0.00000

 Dipole moment (field-independent basis, Debye):
    X=             -0.0235    Y=              4.7153    Z=             -2.1061  Tot=              5.1643
 Quadrupole moment (field-independent basis, Debye-Ang):
   XX=            -71.6531   YY=            -86.3502   ZZ=            -72.6895
   XY=              3.7084   XZ=             -2.6091   YZ=              0.6527

  Exact polarizability: 180.227   2.352 168.069  -0.988   0.172 174.180
 Approx polarizability: 144.726   2.887 140.106  -0.560   0.026 144.514

                      1                      2                      3
                      A                      A                      A
 Frequencies --     37.6508                44.7770                73.8034
 Red. masses --      3.6336                 4.2865                 3.4982
 Frc consts  --      0.0030                 0.0051                 0.0112
 IR Inten    --      0.1426                 2.7296                 1.3219

                      4                      5                      6
                      A                      A                      A
 Frequencies --    148.2431               170.7125               234.8120
 Red. masses --      3.2783                 3.3501                 2.6040
 Frc consts  --      0.0424                 0.0575                 0.0846
 IR Inten    --      6.0814                 0.6909                 8.0554

                      7                      8                      9
                      A                      A                      A
 Frequencies --    249.0642               289.3139               343.3699
 Red. masses --      2.5852                 2.6260                 2.1713
 Frc consts  --      0.0945                 0.1295                 0.1508
 IR Inten    --      0.3149                 1.7790                 1.9542

                     10                     11                     12
                      A                      A                      A
 Frequencies --    384.7515               417.3506               430.4442
 Red. masses --      2.4422                 2.6142                 2.5128
 Frc consts  --      0.2130                 0.2683                 0.2743
 IR Inten    --      7.9158                 7.6055                13.1149

                     13                     14                     15
                      A                      A                      A
 Frequencies --    442.4297               506.1075               518.2799
 Red. masses --      2.4920                 2.9367                 3.3026
 Frc consts  --      0.2874                 0.4432                 0.5227
 IR Inten    --      3.3830                 7.6951                12.0090

                     16                     17                     18
                      A                      A                      A
 Frequencies --    527.5978               544.1803               669.7741
 Red. masses --      2.8361                 2.3344                 2.4006
 Frc consts  --      0.4651                 0.4073                 0.6345
 IR Inten    --      2.1137                19.2228                 2.6420

                     19                     20                     21
                      A                      A                      A
 Frequencies --    747.0655               831.0110               846.5539
 Red. masses --      2.4572                 1.7077                 2.7490
 Frc consts  --      0.8080                 0.6948                 1.1608
 IR Inten    --      8.6742                 1.5288                 3.3206

                     22                     23                     24
                      A                      A                      A
 Frequencies --    854.3847               874.4393               881.8783
 Red. masses --      3.5634                 1.7701                 2.0080
 Frc consts  --      1.5326                 0.7975                 0.9201
 IR Inten    --      8.0979                18.6005                23.3016

                     25                     26                     27
                      A                      A                      A
 Frequencies --    898.2845               904.5143               909.6995
 Red. masses --      2.5069                 2.5443                 2.0841
 Frc consts  --      1.1918                 1.2265                 1.0162
 IR Inten    --     13.0147                88.7150                11.9521

                     28                     29                     30
                      A                      A                      A
 Frequencies --    937.1517               952.4539              1009.6717
 Red. masses --      1.7201                 1.7770                 1.7559
 Frc consts  --      0.8901                 0.9498                 1.0546
 IR Inten    --     19.4898                12.1842                 7.7118

                     31                     32                     33
                      A                      A                      A
 Frequencies --   1027.4248              1042.2388              1052.7332
 Red. masses --      2.1874                 2.4201                 1.8882
 Frc consts  --      1.3604                 1.5489                 1.2329
 IR Inten    --     29.6536                31.5449                52.0974

                     34                     35                     36
                      A                      A                      A
 Frequencies --   1065.1602              1070.0148              1080.3123
 Red. masses --      1.9292                 2.3869                 1.8368
 Frc consts  --      1.2896                 1.6101                 1.2630
 IR Inten    --     74.9742               102.4274               239.3223

                     37                     38                     39
                      A                      A                      A
 Frequencies --   1098.0450              1144.1356              1151.6488
 Red. masses --      1.5757                 2.2150                 2.7647
 Frc consts  --      1.1193                 1.7084                 2.1604
 IR Inten    --     65.8165               204.2545                32.1417

                     40                     41                     42
                      A                      A                      A
 Frequencies --   1177.6075              1193.7564              1210.8255
 Red. masses --      2.4731                 1.7925                 1.4542
 Frc consts  --      2.0206                 1.5050                 1.2561
 IR Inten    --     18.7358                28.4036                11.5325

                     43                     44                     45
                      A                      A                      A
 Frequencies --   1227.0955              1241.3383              1274.7109
 Red. masses --      1.3706                 1.7866                 1.5071
 Frc consts  --      1.2160                 1.6220                 1.4428
 IR Inten    --     45.9225                49.5716                59.1944

                     46                     47                     48
                      A                      A                      A
 Frequencies --   1288.5671              1303.8135              1319.7981
 Red. masses --      1.5928                 1.1858                 1.2184
 Frc consts  --      1.5582                 1.1876                 1.2505
 IR Inten    --    156.3580                10.2786                43.8253

                     49                     50                     51
                      A                      A                      A
 Frequencies --   1337.2250              1355.0897              1362.9910
 Red. masses --      1.2267                 1.3413                 1.4340
 Frc consts  --      1.2924                 1.4512                 1.5696
 IR Inten    --     15.0715                 9.9713                 3.7855

                     52                     53                     54
                      A                      A                      A
 Frequencies --   1368.6357              1382.5952              1383.7007
 Red. masses --      1.6319                 1.5454                 1.4520
 Frc consts  --      1.8010                 1.7405                 1.6380
 IR Inten    --      5.8526                10.9806                14.5787

                     55                     56                     57
                      A                      A                      A
 Frequencies --   1389.7374              1399.4527              1403.6371
 Red. masses --      1.6603                 1.3373                 1.3731
 Frc consts  --      1.8893                 1.5431                 1.5939
 IR Inten    --     13.9412                37.1486                 4.0608

                     58                     59                     60
                      A                      A                      A
 Frequencies --   1411.7451              1427.5426              1435.3269
 Red. masses --      1.3856                 1.3246                 1.3593
 Frc consts  --      1.6270                 1.5904                 1.6499
 IR Inten    --     20.1843                17.6587                 1.4357

                     61                     62                     63
                      A                      A                      A
 Frequencies --   1459.2384              1468.8419              1472.1698
 Red. masses --      1.3973                 1.0905                 1.1036
 Frc consts  --      1.7531                 1.3862                 1.4092
 IR Inten    --     40.9589                 6.7886                 3.2793

                     64                     65                     66
                      A                      A                      A
 Frequencies --   1474.8341              1479.0423              1489.4515
 Red. masses --      1.0958                 1.1250                 1.1314
 Frc consts  --      1.4043                 1.4500                 1.4789
 IR Inten    --     15.1884                16.6734                21.3444

                     67                     68                     69
                      A                      A                      A
 Frequencies --   1492.1651              1504.3214              1510.0432
 Red. masses --      1.0874                 1.0996                 1.1077
 Frc consts  --      1.4265                 1.4661                 1.4882
 IR Inten    --      6.0552                 8.1619                11.7842

                     70                     71                     72
                      A                      A                      A
 Frequencies --   3029.1443              3041.2635              3062.2969
 Red. masses --      1.0699                 1.0677                 1.0682
 Frc consts  --      5.7839                 5.8186                 5.9017
 IR Inten    --     76.0993                58.1457                24.0740

                     73                     74                     75
                      A                      A                      A
 Frequencies --   3068.3285              3070.8859              3070.9409
 Red. masses --      1.0648                 1.0645                 1.0636
 Frc consts  --      5.9065                 5.9145                 5.9095
 IR Inten    --     35.4838                16.6121                66.2219

                     76                     77                     78
                      A                      A                      A
 Frequencies --   3076.1699              3076.8150              3083.9130
 Red. masses --      1.0642                 1.0618                 1.0826
 Frc consts  --      5.9333                 5.9226                 6.0664
 IR Inten    --     15.4761                26.0621                36.2670

                     79                     80                     81
                      A                      A                      A
 Frequencies --   3094.1902              3117.0418              3117.8016
 Red. masses --      1.0857                 1.0970                 1.1014
 Frc consts  --      6.1244                 6.2795                 6.3082
 IR Inten    --     99.5973                37.8420                32.1035

                     82                     83                     84
                      A                      A                      A
 Frequencies --   3120.2678              3125.2994              3126.1971
 Red. masses --      1.1016                 1.1035                 1.1028
 Frc consts  --      6.3189                 6.3507                 6.3503
 IR Inten    --     68.2526                39.0814                69.0907

                     85                     86                     87
                      A                      A                      A
 Frequencies --   3131.8101              3135.4289              3144.5638
 Red. masses --      1.0968                 1.0966                 1.0997
 Frc consts  --      6.3382                 6.3515                 6.4067
 IR Inten    --     36.9397                42.8136                42.1862

 - Thermochemistry -
 -------------------
 Temperature   298.150 Kelvin.  Pressure   1.00000 Atm.
 Atom     1 has atomic number  6 and mass  12.00000

 Molecular mass:   186.12559 amu.
 Principal axes and moments of inertia in atomic units:
                           1         2         3
     Eigenvalues --  1093.337653964.117384108.97824
           X            1.00000   0.00127  -0.00193
           Y           -0.00125   0.99994   0.01092
           Z            0.00195  -0.01092   0.99994
 This molecule is an asymmetric top.
 Rotational symmetry number  1.
 Warning -- assumption of classical behavior for rotation
           may cause significant error
 Rotational temperatures (Kelvin)      0.07922     0.02185     0.02108
 Rotational constants (GHZ):           1.65067     0.45527     0.43922
 Zero-point vibrational energy     737791.7 (Joules/Mol)
                                  176.33645 (Kcal/Mol)
 Warning -- explicit consideration of  17 degrees of freedom as
           vibrations may cause significant error
 Vibrational temperatures:     54.17    64.42   106.19   213.29   245.62
          (Kelvin)            337.84   358.35   416.26   494.03   553.57
                              600.47   619.31   636.56   728.18   745.69
                              759.10   782.95   963.66  1074.86  1195.64
                             1218.00  1229.27  1258.12  1268.83  1292.43
                             1301.39  1308.85  1348.35  1370.37  1452.69
                             1478.24  1499.55  1514.65  1532.53  1539.51
                             1554.33  1579.84  1646.16  1656.97  1694.31
                             1717.55  1742.11  1765.52  1786.01  1834.02
                             1853.96  1875.90  1898.90  1923.97  1949.67
                             1961.04  1969.16  1989.25  1990.84  1999.52
                             2013.50  2019.52  2031.19  2053.92  2065.12
                             2099.52  2113.34  2118.12  2121.96  2128.01
                             2142.99  2146.89  2164.38  2172.62  4358.26
                             4375.70  4405.96  4414.64  4418.32  4418.40
                             4425.92  4426.85  4437.06  4451.85  4484.73
                             4485.82  4489.37  4496.61  4497.90  4505.98
                             4511.18  4524.33

 Zero-point correction=                           0.281010 (Hartree/Particle)
 Thermal correction to Energy=                    0.292722
 Thermal correction to Enthalpy=                  0.293666
 Thermal correction to Gibbs Free Energy=         0.242306
 Sum of electronic and zero-point Energies=           -617.224258
 Sum of electronic and thermal Energies=              -617.212547
 Sum of electronic and thermal Enthalpies=            -617.211602
 Sum of electronic and thermal Free Energies=         -617.262962

                     E (Thermal)             CV                S
                      KCal/Mol        Cal/Mol-Kelvin    Cal/Mol-Kelvin
 Total                  183.686             46.502            108.096
 Electronic               0.000              0.000              0.000
 Translational            0.889              2.981             41.570
 Rotational               0.889              2.981             31.255
 Vibrational            181.908             40.540             35.272
 Vibration     1          0.594              1.982              5.379
 Vibration     2          0.595              1.979              5.036
 Vibration     3          0.599              1.966              4.049
 Vibration     4          0.618              1.905              2.695
 Vibration     5          0.626              1.879              2.428
 Vibration     6          0.655              1.788              1.842
 Vibration     7          0.662              1.764              1.737
 Vibration     8          0.686              1.694              1.478
 Vibration     9          0.722              1.589              1.196
 Vibration    10          0.754              1.503              1.020
 Vibration    11          0.780              1.433              0.901
 Vibration    12          0.792              1.404              0.857
 Vibration    13          0.802              1.378              0.819
 Vibration    14          0.861              1.236              0.643
 Vibration    15          0.873              1.210              0.614
 Vibration    16          0.883              1.189              0.593
 Vibration    17          0.899              1.152              0.556

 Optimization completed.
    -- Stationary point found.
 Normal termination of Gaussian 16 at Fri Mar  8 15:53:17 2019.
