 Gaussian 16, Revision B.01,
 Gaussian 16:  ES64L-G16RevB.01 20-Dec-2017

 ----------------------------------------------------------------------
 #M062X/6-311++G(2d,2p) opt=ModRedundant freq=noraman SCRF=(SMD,solvent
 =water)
 ----------------------------------------------------------------------

 -------------------------------
 4c1_a1_a4_4c1_PHI.inp_extract_5
 -------------------------------
 Symbolic Z-matrix:
 Charge =  0 Multiplicity = 1

 SCF Done:  E(RM062X) =  -617.503553710     A.U. after   12 cycles
 SCF Done:  E(RM062X) =  -617.505211350     A.U. after   10 cycles
 SCF Done:  E(RM062X) =  -617.505321889     A.U. after    9 cycles
 SCF Done:  E(RM062X) =  -617.505326221     A.U. after    8 cycles
 SCF Done:  E(RM062X) =  -617.505327339     A.U. after    7 cycles
 SCF Done:  E(RM062X) =  -617.505327029     A.U. after    6 cycles
 Optimization completed.
    -- Stationary point found.
 Normal termination of Gaussian 16 at Fri Mar  8 14:37:08 2019.

 ----------------------------------------------------------------------
 #N Geom=AllCheck Guess=TCheck SCRF=Check GenChk RM062X/6-311++G(2d,2p)
  Freq
 ----------------------------------------------------------------------

 Structure from the checkpoint file:  "4c1_a1_a4_4c1_PHI.inp_extract_5.chk"
 -------------------------------
 4c1_a1_a4_4c1_PHI.inp_extract_5
 -------------------------------
 Charge =  0 Multiplicity = 1

                         Standard orientation:
 ---------------------------------------------------------------------
 Center     Atomic      Atomic             Coordinates (Angstroms)
 Number     Number       Type             X           Y           Z
 ---------------------------------------------------------------------
      1          6           0        1.969630   -0.549101   -1.220598
      2          6           0       -1.103513   -0.220446   -0.871187
      3          6           0        1.125881    0.624204   -0.743261
      4          6           0       -3.421708   -0.128700    0.831796
      5          6           0        3.348421   -0.483584    0.689316
      6          8           0        2.504857   -1.289834   -0.132821
      7          6           0       -2.814535    1.177916    0.327523
      8          6           0       -2.344991   -1.193348    0.916287
      9          6           0       -2.099174    0.922355   -0.996381
     10          6           0        2.572768    0.667540    1.304510
     11          8           0       -1.694586   -1.386783   -0.348293
     12          8           0       -0.022347    0.153078   -0.032131
     13          6           0        1.931131    1.505789    0.199872
     14          1           0        2.783046   -0.169913   -1.849298
     15          1           0        1.372477   -1.246420   -1.806236
     16          1           0       -0.721836   -0.509320   -1.850763
     17          1           0        0.803206    1.204161   -1.612168
     18          1           0       -4.203393   -0.463770    0.145704
     19          1           0       -3.873089   -0.002749    1.816289
     20          1           0        3.754987   -1.145831    1.450751
     21          1           0        4.175627   -0.100831    0.080037
     22          1           0       -2.102986    1.555957    1.065261
     23          1           0       -3.582341    1.939781    0.198200
     24          1           0       -2.758442   -2.164256    1.179209
     25          1           0       -1.598408   -0.922494    1.667230
     26          1           0       -2.825419    0.650042   -1.765024
     27          1           0       -1.563411    1.807020   -1.343106
     28          1           0        3.247188    1.276887    1.906232
     29          1           0        1.806599    0.266310    1.970321
     30          1           0        1.286406    2.282437    0.610686
     31          1           0        2.712945    1.995562   -0.384623
 ---------------------------------------------------------------------

 SCF Done:  E(RM062X) =  -617.505327029     A.U. after    1 cycles

 The electronic state is 1-A.
 Alpha  occ. eigenvalues --  -19.63208 -19.62892 -19.62809 -10.63170 -10.58458
 Alpha  occ. eigenvalues --  -10.57465 -10.57334 -10.57308 -10.52624 -10.52375
 Alpha  occ. eigenvalues --  -10.52332 -10.52306 -10.52207  -1.19686  -1.16180
 Alpha  occ. eigenvalues --   -1.13149  -0.90155  -0.89356  -0.86376  -0.84358
 Alpha  occ. eigenvalues --   -0.73999  -0.72979  -0.72853  -0.71211  -0.65897
 Alpha  occ. eigenvalues --   -0.62079  -0.59267  -0.58042  -0.56761  -0.55271
 Alpha  occ. eigenvalues --   -0.53726  -0.53039  -0.51840  -0.50202  -0.49417
 Alpha  occ. eigenvalues --   -0.47541  -0.46139  -0.45773  -0.45093  -0.45008
 Alpha  occ. eigenvalues --   -0.43454  -0.42396  -0.40590  -0.39980  -0.38426
 Alpha  occ. eigenvalues --   -0.37854  -0.37618  -0.36461  -0.34679  -0.33089
 Alpha  occ. eigenvalues --   -0.31454
 Alpha virt. eigenvalues --    0.00325   0.01278   0.01308   0.01626   0.02723
 Alpha virt. eigenvalues --    0.02936   0.03152   0.03778   0.03840   0.05056
 Alpha virt. eigenvalues --    0.05234   0.05395   0.05816   0.06170   0.07445

 Mulliken charges:
               1
     1  C   -0.385635
     2  C   -0.038284
     3  C    0.059363
     4  C   -0.372183
     5  C   -0.182659
     6  O   -0.353874
     7  C   -0.350753
     8  C   -0.219134
     9  C   -0.224264
    10  C   -0.321593
    11  O   -0.349400
    12  O   -0.360416
    13  C   -0.430451
    14  H    0.196912
    15  H    0.229222
    16  H    0.287808
    17  H    0.248984
    18  H    0.171650
    19  H    0.175178
    20  H    0.209010
    21  H    0.157823
    22  H    0.178695
    23  H    0.184141
    24  H    0.221521
    25  H    0.167568
    26  H    0.196497
    27  H    0.170176
    28  H    0.183925
    29  H    0.165563
    30  H    0.170662
    31  H    0.213949
 Sum of Mulliken charges =  -0.00000

 Dipole moment (field-independent basis, Debye):
    X=              0.1888    Y=              4.6040    Z=             -1.0489  Tot=              4.7257
 Quadrupole moment (field-independent basis, Debye-Ang):
   XX=            -69.5416   YY=            -85.7045   ZZ=            -73.3059
   XY=              4.2091   XZ=             -1.9674   YZ=             -2.8860

  Exact polarizability: 180.045   2.469 168.702  -0.389  -1.885 173.695
 Approx polarizability: 144.635   2.941 140.249  -0.053  -1.091 144.281

 ******    1 imaginary frequencies (negative Signs) ******

                      1                      2                      3
                      A                      A                      A
 Frequencies --    -13.5791                47.5107                75.7257
 Red. masses --      4.4186                 3.8121                 3.3873
 Frc consts  --      0.0005                 0.0051                 0.0114
 IR Inten    --      3.0615                 0.1848                 1.8038

                      4                      5                      6
                      A                      A                      A
 Frequencies --    145.7254               169.0595               233.9454
 Red. masses --      3.1906                 3.6574                 2.5334
 Frc consts  --      0.0399                 0.0616                 0.0817
 IR Inten    --      3.4563                 2.5500                 8.6263

                      7                      8                      9
                      A                      A                      A
 Frequencies --    245.7999               289.1282               344.0993
 Red. masses --      2.5313                 2.4830                 2.2499
 Frc consts  --      0.0901                 0.1223                 0.1570
 IR Inten    --      0.4516                 1.8721                 2.1607

                     10                     11                     12
                      A                      A                      A
 Frequencies --    380.6797               417.0664               434.0255
 Red. masses --      2.3798                 2.4493                 2.7669
 Frc consts  --      0.2032                 0.2510                 0.3071
 IR Inten    --      7.7521                 5.2724                13.9865

                     13                     14                     15
                      A                      A                      A
 Frequencies --    439.1523               502.7718               523.7449
 Red. masses --      2.4211                 3.1924                 2.5254
 Frc consts  --      0.2751                 0.4754                 0.4082
 IR Inten    --      3.4563                 4.0485                 7.9268

                     16                     17                     18
                      A                      A                      A
 Frequencies --    526.1837               546.1003               670.2338
 Red. masses --      2.8660                 2.8046                 2.4196
 Frc consts  --      0.4675                 0.4928                 0.6404
 IR Inten    --      1.9966                30.7098                 2.4721

                     19                     20                     21
                      A                      A                      A
 Frequencies --    746.2165               831.4277               844.2226
 Red. masses --      2.4473                 1.6848                 3.0587
 Frc consts  --      0.8029                 0.6862                 1.2844
 IR Inten    --      8.8281                 1.4461                 8.0524

                     22                     23                     24
                      A                      A                      A
 Frequencies --    853.9579               871.9982               879.5068
 Red. masses --      3.2130                 1.8073                 1.9097
 Frc consts  --      1.3805                 0.8097                 0.8703
 IR Inten    --      5.1968                17.0848                21.8999

                     25                     26                     27
                      A                      A                      A
 Frequencies --    900.7033               904.1442               908.5507
 Red. masses --      2.5301                 2.6230                 2.0677
 Frc consts  --      1.2094                 1.2633                 1.0056
 IR Inten    --     29.2666                62.1631                20.3683

                     28                     29                     30
                      A                      A                      A
 Frequencies --    939.1632               952.0458              1008.6804
 Red. masses --      1.7218                 1.7594                 1.7420
 Frc consts  --      0.8948                 0.9396                 1.0443
 IR Inten    --     18.6260                13.0386                 7.6308

                     31                     32                     33
                      A                      A                      A
 Frequencies --   1029.1207              1040.9124              1053.7247
 Red. masses --      2.2177                 2.3963                 1.8390
 Frc consts  --      1.3838                 1.5298                 1.2031
 IR Inten    --     21.2349                37.8687                24.8334

                     34                     35                     36
                      A                      A                      A
 Frequencies --   1064.5013              1067.2852              1080.3062
 Red. masses --      1.8430                 2.3264                 1.9117
 Frc consts  --      1.2305                 1.5613                 1.3145
 IR Inten    --     40.6705               165.5939               224.5844

                     37                     38                     39
                      A                      A                      A
 Frequencies --   1099.7215              1143.5973              1150.6826
 Red. masses --      1.6117                 2.1836                 2.8065
 Frc consts  --      1.1484                 1.6825                 2.1894
 IR Inten    --     84.6982               190.5062                37.9902

                     40                     41                     42
                      A                      A                      A
 Frequencies --   1179.0111              1192.0638              1210.5495
 Red. masses --      2.5290                 1.7881                 1.4599
 Frc consts  --      2.0712                 1.4971                 1.2605
 IR Inten    --     22.1961                28.6881                14.0475

                     43                     44                     45
                      A                      A                      A
 Frequencies --   1227.0746              1242.1789              1274.2973
 Red. masses --      1.3734                 1.7690                 1.5088
 Frc consts  --      1.2184                 1.6082                 1.4436
 IR Inten    --     43.0761                53.5776                58.6803

                     46                     47                     48
                      A                      A                      A
 Frequencies --   1288.3380              1299.6304              1320.1458
 Red. masses --      1.7197                 1.1335                 1.2115
 Frc consts  --      1.6817                 1.1280                 1.2439
 IR Inten    --    176.8539                 2.5939                43.7440

                     49                     50                     51
                      A                      A                      A
 Frequencies --   1336.9818              1356.7748              1363.4484
 Red. masses --      1.2206                 1.3393                 1.3854
 Frc consts  --      1.2855                 1.4526                 1.5174
 IR Inten    --     18.3853                10.8099                 3.8355

                     52                     53                     54
                      A                      A                      A
 Frequencies --   1369.2875              1381.4457              1384.0941
 Red. masses --      1.7358                 1.3619                 1.5489
 Frc consts  --      1.9175                 1.5313                 1.7482
 IR Inten    --      3.8744                30.9213                 9.5741

                     55                     56                     57
                      A                      A                      A
 Frequencies --   1388.6622              1396.0315              1403.4200
 Red. masses --      1.7250                 1.3671                 1.3770
 Frc consts  --      1.9599                 1.5698                 1.5980
 IR Inten    --     18.5998                28.5515                 3.1221

                     58                     59                     60
                      A                      A                      A
 Frequencies --   1411.1226              1424.0639              1433.7609
 Red. masses --      1.4221                 1.3495                 1.3607
 Frc consts  --      1.6685                 1.6125                 1.6480
 IR Inten    --     13.2885                13.8828                 3.3082

                     61                     62                     63
                      A                      A                      A
 Frequencies --   1456.7718              1467.3703              1469.3441
 Red. masses --      1.3644                 1.1190                 1.0918
 Frc consts  --      1.7060                 1.4196                 1.3888
 IR Inten    --     42.5545                 3.9733                 8.2162

                     64                     65                     66
                      A                      A                      A
 Frequencies --   1471.6305              1479.7781              1489.7271
 Red. masses --      1.0902                 1.1221                 1.0878
 Frc consts  --      1.3911                 1.4477                 1.4224
 IR Inten    --     10.5691                15.7475                 4.6038

                     67                     68                     69
                      A                      A                      A
 Frequencies --   1490.6071              1504.4035              1508.1732
 Red. masses --      1.1245                 1.0994                 1.1053
 Frc consts  --      1.4721                 1.4660                 1.4813
 IR Inten    --     21.1304                 6.9604                11.0292

                     70                     71                     72
                      A                      A                      A
 Frequencies --   3031.5737              3041.8068              3061.8590
 Red. masses --      1.0699                 1.0683                 1.0689
 Frc consts  --      5.7932                 5.8237                 5.9044
 IR Inten    --     75.9898                49.1161                26.9199

                     73                     74                     75
                      A                      A                      A
 Frequencies --   3064.4775              3067.5339              3069.8589
 Red. masses --      1.0803                 1.0657                 1.0620
 Frc consts  --      5.9771                 5.9084                 5.8970
 IR Inten    --     26.1210                40.1675                58.9959

                     76                     77                     78
                      A                      A                      A
 Frequencies --   3072.9088              3077.2183              3078.0350
 Red. masses --      1.0611                 1.0678                 1.0613
 Frc consts  --      5.9034                 5.9573                 5.9240
 IR Inten    --     28.5574                24.3056                59.6003

                     79                     80                     81
                      A                      A                      A
 Frequencies --   3103.6718              3116.2351              3118.8190
 Red. masses --      1.0874                 1.0971                 1.1017
 Frc consts  --      6.1718                 6.2768                 6.3137
 IR Inten    --     67.4004                33.8497                38.1528

                     82                     83                     84
                      A                      A                      A
 Frequencies --   3120.6348              3122.3565              3126.6912
 Red. masses --      1.1007                 1.1048                 1.1043
 Frc consts  --      6.3153                 6.3461                 6.3610
 IR Inten    --     42.1840                62.1984                64.2491

                     85                     86                     87
                      A                      A                      A
 Frequencies --   3133.7031              3137.7969              3142.7275
 Red. masses --      1.0963                 1.0965                 1.0993
 Frc consts  --      6.3428                 6.3608                 6.3970
 IR Inten    --     38.1352                41.7878                43.0131

 - Thermochemistry -
 -------------------
 Temperature   298.150 Kelvin.  Pressure   1.00000 Atm.
 Atom     1 has atomic number  6 and mass  12.00000

 Molecular mass:   186.12559 amu.
 Principal axes and moments of inertia in atomic units:
                           1         2         3
     Eigenvalues --  1100.022523939.581724106.52817
           X            1.00000   0.00224  -0.00216
           Y           -0.00234   0.99894  -0.04600
           Z            0.00205   0.04600   0.99894
 This molecule is an asymmetric top.
 Rotational symmetry number  1.
 Warning -- assumption of classical behavior for rotation
           may cause significant error
 Rotational temperatures (Kelvin)      0.07874     0.02199     0.02109
 Rotational constants (GHZ):           1.64064     0.45810     0.43948
    1 imaginary frequencies ignored.
 Zero-point vibrational energy     737315.5 (Joules/Mol)
                                  176.22262 (Kcal/Mol)
 Warning -- explicit consideration of  16 degrees of freedom as
           vibrations may cause significant error
 Vibrational temperatures:     68.36   108.95   209.67   243.24   336.60
          (Kelvin)            353.65   415.99   495.08   547.71   600.07
                              624.47   631.84   723.38   753.55   757.06
                              785.72   964.32  1073.64  1196.24  1214.65
                             1228.65  1254.61  1265.41  1295.91  1300.86
                             1307.20  1351.25  1369.78  1451.27  1480.68
                             1497.64  1516.07  1531.58  1535.59  1554.32
                             1582.25  1645.38  1655.58  1696.33  1715.11
                             1741.71  1765.49  1787.22  1833.43  1853.63
                             1869.88  1899.40  1923.62  1952.10  1961.70
                             1970.10  1987.59  1991.40  1997.98  2008.58
                             2019.21  2030.29  2048.91  2062.86  2095.97
                             2111.22  2114.06  2117.35  2129.07  2143.39
                             2144.65  2164.50  2169.92  4361.76  4376.48
                             4405.33  4409.10  4413.50  4416.84  4421.23
                             4427.43  4428.61  4465.49  4483.57  4487.28
                             4489.90  4492.37  4498.61  4508.70  4514.59
                             4521.68

 Zero-point correction=                           0.280829 (Hartree/Particle)
 Thermal correction to Energy=                    0.291687
 Thermal correction to Enthalpy=                  0.292631
 Thermal correction to Gibbs Free Energy=         0.243862
 Sum of electronic and zero-point Energies=           -617.224498
 Sum of electronic and thermal Energies=              -617.213640
 Sum of electronic and thermal Enthalpies=            -617.212696
 Sum of electronic and thermal Free Energies=         -617.261465

                     E (Thermal)             CV                S
                      KCal/Mol        Cal/Mol-Kelvin    Cal/Mol-Kelvin
 Total                  183.036             44.550            102.644
 Electronic               0.000              0.000              0.000
 Translational            0.889              2.981             41.570
 Rotational               0.889              2.981             31.254
 Vibrational            181.259             38.588             29.820
 Vibration     1          0.595              1.979              4.918
 Vibration     2          0.599              1.965              3.999
 Vibration     3          0.617              1.907              2.727
 Vibration     4          0.625              1.881              2.446
 Vibration     5          0.654              1.789              1.848
 Vibration     6          0.660              1.770              1.761
 Vibration     7          0.686              1.694              1.479
 Vibration     8          0.723              1.587              1.193
 Vibration     9          0.750              1.511              1.036
 Vibration    10          0.780              1.433              0.902
 Vibration    11          0.795              1.396              0.846
 Vibration    12          0.799              1.385              0.829
 Vibration    13          0.858              1.244              0.651
 Vibration    14          0.879              1.197              0.601
 Vibration    15          0.881              1.192              0.596
 Vibration    16          0.901              1.148              0.552

 Optimization completed.
    -- Stationary point found.
 Normal termination of Gaussian 16 at Fri Mar  8 15:39:29 2019.
