 Gaussian 16, Revision B.01,
 Gaussian 16:  ES64L-G16RevB.01 20-Dec-2017

 ----------------------------------------------------------------------
 #M062X/6-311++G(2d,2p) opt=ModRedundant freq=noraman SCRF=(SMD,solvent
 =water)
 ----------------------------------------------------------------------

 --------------------------------
 4c1_a1_a4_4c1_PHI.inp_extract_14
 --------------------------------
 Symbolic Z-matrix:
 Charge =  0 Multiplicity = 1

 SCF Done:  E(RM062X) =  -617.495592099     A.U. after   13 cycles
 SCF Done:  E(RM062X) =  -617.495950660     A.U. after   11 cycles
 SCF Done:  E(RM062X) =  -617.497291635     A.U. after   11 cycles
 SCF Done:  E(RM062X) =  -617.497706268     A.U. after   10 cycles
 SCF Done:  E(RM062X) =  -617.497806696     A.U. after    9 cycles
 SCF Done:  E(RM062X) =  -617.497813752     A.U. after    8 cycles
 SCF Done:  E(RM062X) =  -617.497815655     A.U. after    8 cycles
 SCF Done:  E(RM062X) =  -617.497817143     A.U. after    8 cycles
 SCF Done:  E(RM062X) =  -617.497818116     A.U. after    8 cycles
 SCF Done:  E(RM062X) =  -617.497818756     A.U. after    8 cycles
 SCF Done:  E(RM062X) =  -617.497818889     A.U. after    6 cycles
 Optimization completed.
    -- Stationary point found.
 Normal termination of Gaussian 16 at Fri Mar  8 18:17:16 2019.

 ----------------------------------------------------------------------
 #N Geom=AllCheck Guess=TCheck SCRF=Check GenChk RM062X/6-311++G(2d,2p)
  Freq
 ----------------------------------------------------------------------

 Structure from the checkpoint file:  "4c1_a1_a4_4c1_PHI.inp_extract_14.chk"
 --------------------------------
 4c1_a1_a4_4c1_PHI.inp_extract_14
 --------------------------------
 Charge =  0 Multiplicity = 1

                         Standard orientation:
 ---------------------------------------------------------------------
 Center     Atomic      Atomic             Coordinates (Angstroms)
 Number     Number       Type             X           Y           Z
 ---------------------------------------------------------------------
      1          6           0        1.679378   -1.292626   -0.522035
      2          6           0       -1.167580   -0.212412    1.186983
      3          6           0        0.708793   -0.127592   -0.413692
      4          6           0       -3.284592    0.287058   -0.767411
      5          6           0        3.550925    0.064737   -0.078742
      6          8           0        2.823597   -1.104041    0.299492
      7          6           0       -2.551412   -1.046005   -0.864010
      8          6           0       -2.332368    1.347927   -0.256500
      9          6           0       -1.867650   -1.373130    0.467935
     10          6           0        2.701304    1.313094    0.082288
     11          8           0       -1.850729    1.018903    1.051856
     12          8           0        0.213270   -0.069031    0.929649
     13          6           0        1.420682    1.181145   -0.740751
     14          1           0        1.989232   -1.405398   -1.567104
     15          1           0        1.203197   -2.213715   -0.190574
     16          1           0       -1.192696   -0.408027    2.256802
     17          1           0       -0.101260   -0.298624   -1.116513
     18          1           0       -4.126052    0.207560   -0.074915
     19          1           0       -3.677341    0.589464   -1.738243
     20          1           0        4.432208    0.094995    0.558556
     21          1           0        3.875371   -0.042147   -1.120560
     22          1           0       -1.831620   -1.000094   -1.681441
     23          1           0       -3.245905   -1.850146   -1.106104
     24          1           0       -2.826965    2.310389   -0.145005
     25          1           0       -1.492308    1.478466   -0.944700
     26          1           0       -2.638392   -1.716036    1.160183
     27          1           0       -1.152071   -2.188318    0.359842
     28          1           0        3.275103    2.183622   -0.235828
     29          1           0        2.459704    1.444849    1.138386
     30          1           0        0.745634    2.018204   -0.560628
     31          1           0        1.670184    1.175130   -1.804535
 ---------------------------------------------------------------------

 SCF Done:  E(RM062X) =  -617.497818889     A.U. after    1 cycles

 The electronic state is 1-A.
 Alpha  occ. eigenvalues --  -19.63039 -19.62883 -19.62779 -10.63458 -10.58202
 Alpha  occ. eigenvalues --  -10.57419 -10.57405 -10.57293 -10.52850 -10.52554
 Alpha  occ. eigenvalues --  -10.52501 -10.52269 -10.52255  -1.19221  -1.16151
 Alpha  occ. eigenvalues --   -1.12994  -0.90050  -0.89679  -0.86656  -0.84223
 Alpha  occ. eigenvalues --   -0.74263  -0.73570  -0.73140  -0.70658  -0.65777
 Alpha  occ. eigenvalues --   -0.62325  -0.59058  -0.57921  -0.56626  -0.54780
 Alpha  occ. eigenvalues --   -0.54058  -0.52490  -0.52018  -0.50323  -0.49671
 Alpha  occ. eigenvalues --   -0.49150  -0.46162  -0.45495  -0.45402  -0.44562
 Alpha  occ. eigenvalues --   -0.42703  -0.41819  -0.41399  -0.39298  -0.39033
 Alpha  occ. eigenvalues --   -0.37840  -0.36510  -0.36162  -0.35013  -0.33321
 Alpha  occ. eigenvalues --   -0.31531
 Alpha virt. eigenvalues --    0.00282   0.01198   0.01363   0.01653   0.02760
 Alpha virt. eigenvalues --    0.03081   0.03151   0.03713   0.04044   0.05063
 Alpha virt. eigenvalues --    0.05337   0.05400   0.06142   0.06341   0.07823

 Mulliken charges:
               1
     1  C   -0.469610
     2  C   -0.084000
     3  C    0.106161
     4  C   -0.339644
     5  C   -0.209837
     6  O   -0.371590
     7  C   -0.317788
     8  C   -0.236151
     9  C   -0.285063
    10  C   -0.322805
    11  O   -0.354874
    12  O   -0.344310
    13  C   -0.376784
    14  H    0.202643
    15  H    0.226417
    16  H    0.266131
    17  H    0.263120
    18  H    0.176316
    19  H    0.173477
    20  H    0.209692
    21  H    0.152737
    22  H    0.188653
    23  H    0.198660
    24  H    0.233405
    25  H    0.151109
    26  H    0.229585
    27  H    0.178830
    28  H    0.192256
    29  H    0.178776
    30  H    0.153332
    31  H    0.231155
 Sum of Mulliken charges =  -0.00000

 Dipole moment (field-independent basis, Debye):
    X=             -1.9313    Y=             -0.2144    Z=             -5.1640  Tot=              5.5175
 Quadrupole moment (field-independent basis, Debye-Ang):
   XX=            -76.0989   YY=            -79.9771   ZZ=            -80.9460
   XY=              8.7995   XZ=             -1.9645   YZ=             -2.2367

  Exact polarizability: 181.393   0.951 171.761   0.667  -1.365 169.508
 Approx polarizability: 145.753   0.421 140.837  -0.001  -1.196 143.571

                      1                      2                      3
                      A                      A                      A
 Frequencies --     15.9392                25.5062                91.9437
 Red. masses --      4.2860                 4.1104                 3.3402
 Frc consts  --      0.0006                 0.0016                 0.0166
 IR Inten    --      6.1638                 1.5394                 0.7922

                      4                      5                      6
                      A                      A                      A
 Frequencies --    121.1955               190.1325               204.5700
 Red. masses --      3.4663                 3.9535                 2.9630
 Frc consts  --      0.0300                 0.0842                 0.0731
 IR Inten    --      2.0983                 3.3859                 5.5399

                      7                      8                      9
                      A                      A                      A
 Frequencies --    228.1803               296.3641               340.3983
 Red. masses --      2.2078                 2.3704                 1.7844
 Frc consts  --      0.0677                 0.1227                 0.1218
 IR Inten    --      2.4282                 2.6212                 0.7554

                     10                     11                     12
                      A                      A                      A
 Frequencies --    369.8658               415.1713               428.9160
 Red. masses --      2.3188                 2.4166                 2.7208
 Frc consts  --      0.1869                 0.2454                 0.2949
 IR Inten    --      9.1915                 7.5780                 6.4061

                     13                     14                     15
                      A                      A                      A
 Frequencies --    444.8261               475.7027               520.9060
 Red. masses --      3.1999                 3.7219                 2.2745
 Frc consts  --      0.3731                 0.4962                 0.3636
 IR Inten    --      6.4105                 4.6222                 2.6865

                     16                     17                     18
                      A                      A                      A
 Frequencies --    526.0242               563.7203               683.2384
 Red. masses --      3.4335                 2.3814                 2.6130
 Frc consts  --      0.5598                 0.4459                 0.7187
 IR Inten    --     19.2127                15.3361                12.6387

                     19                     20                     21
                      A                      A                      A
 Frequencies --    754.4527               791.0370               833.9968
 Red. masses --      2.8306                 2.3506                 2.0541
 Frc consts  --      0.9493                 0.8666                 0.8418
 IR Inten    --      7.2994                 3.4075                10.6753

                     22                     23                     24
                      A                      A                      A
 Frequencies --    859.0426               860.6601               877.3826
 Red. masses --      2.4809                 2.7989                 1.6624
 Frc consts  --      1.0787                 1.2215                 0.7540
 IR Inten    --      6.7618                17.0303                12.2342

                     25                     26                     27
                      A                      A                      A
 Frequencies --    901.8272               904.6318               907.0301
 Red. masses --      2.5402                 2.4758                 2.0452
 Frc consts  --      1.2172                 1.1937                 0.9914
 IR Inten    --     42.7892                60.8592                22.9798

                     28                     29                     30
                      A                      A                      A
 Frequencies --    934.4483               946.9471               992.1520
 Red. masses --      1.9717                 1.7090                 1.8925
 Frc consts  --      1.0144                 0.9029                 1.0976
 IR Inten    --      6.5709                 8.4475                20.0419

                     31                     32                     33
                      A                      A                      A
 Frequencies --   1023.6882              1045.1134              1056.3619
 Red. masses --      2.0852                 2.5359                 1.8497
 Frc consts  --      1.2875                 1.6320                 1.2161
 IR Inten    --     13.2914                 5.7444                28.7744

                     34                     35                     36
                      A                      A                      A
 Frequencies --   1067.9268              1084.0989              1092.0376
 Red. masses --      1.8962                 1.5122                 1.5350
 Frc consts  --      1.2742                 1.0471                 1.0785
 IR Inten    --     27.2266                28.2577                69.0880

                     37                     38                     39
                      A                      A                      A
 Frequencies --   1107.2841              1144.0069              1161.0356
 Red. masses --      1.9969                 2.7062                 2.1977
 Frc consts  --      1.4425                 2.0867                 1.7454
 IR Inten    --    191.6501               119.1115                23.0169

                     40                     41                     42
                      A                      A                      A
 Frequencies --   1172.6318              1201.2732              1222.7778
 Red. masses --      2.7712                 1.8512                 1.3577
 Frc consts  --      2.2451                 1.5739                 1.1960
 IR Inten    --    173.9778                90.7640                30.0757

                     43                     44                     45
                      A                      A                      A
 Frequencies --   1232.9553              1239.7272              1256.5929
 Red. masses --      1.8711                 1.9007                 2.0595
 Frc consts  --      1.6759                 1.7212                 1.9160
 IR Inten    --    205.4620                28.7026               140.9165

                     46                     47                     48
                      A                      A                      A
 Frequencies --   1294.0240              1304.1172              1322.6645
 Red. masses --      1.1184                 1.3539                 1.2282
 Frc consts  --      1.1034                 1.3566                 1.2660
 IR Inten    --     24.5011               115.3064                23.7868

                     49                     50                     51
                      A                      A                      A
 Frequencies --   1334.4414              1354.9818              1363.9044
 Red. masses --      1.2505                 1.5539                 1.3294
 Frc consts  --      1.3119                 1.6808                 1.4571
 IR Inten    --     19.0883                 4.1877                 6.1103

                     52                     53                     54
                      A                      A                      A
 Frequencies --   1366.8848              1382.4005              1388.0035
 Red. masses --      1.4023                 1.4618                 1.4292
 Frc consts  --      1.5437                 1.6459                 1.6223
 IR Inten    --      2.6328                 5.3967                 7.7780

                     55                     56                     57
                      A                      A                      A
 Frequencies --   1391.8689              1401.0426              1407.3261
 Red. masses --      1.6321                 1.3215                 1.3508
 Frc consts  --      1.8629                 1.5283                 1.5762
 IR Inten    --     13.6394                10.3795                 1.7770

                     58                     59                     60
                      A                      A                      A
 Frequencies --   1409.6938              1426.8745              1432.5795
 Red. masses --      1.4509                 1.3685                 1.4184
 Frc consts  --      1.6987                 1.6416                 1.7151
 IR Inten    --     21.7854                 8.3359                28.3913

                     61                     62                     63
                      A                      A                      A
 Frequencies --   1455.5632              1467.9440              1468.8315
 Red. masses --      1.1798                 1.0931                 1.1028
 Frc consts  --      1.4728                 1.3878                 1.4018
 IR Inten    --     12.3234                 3.1111                 6.7736

                     64                     65                     66
                      A                      A                      A
 Frequencies --   1473.3350              1478.1643              1488.3596
 Red. masses --      1.0934                 1.1228                 1.0890
 Frc consts  --      1.3984                 1.4455                 1.4214
 IR Inten    --     10.2680                16.9762                 4.1262

                     67                     68                     69
                      A                      A                      A
 Frequencies --   1503.6130              1504.5664              1522.9310
 Red. masses --      1.0988                 1.1011                 1.0913
 Frc consts  --      1.4637                 1.4686                 1.4913
 IR Inten    --      9.9681                11.5334                 5.8424

                     70                     71                     72
                      A                      A                      A
 Frequencies --   3029.7062              3039.1267              3059.9757
 Red. masses --      1.0700                 1.0679                 1.0690
 Frc consts  --      5.7867                 5.8114                 5.8974
 IR Inten    --     77.9158                64.0467                36.8660

                     73                     74                     75
                      A                      A                      A
 Frequencies --   3068.2902              3069.2918              3078.8762
 Red. masses --      1.0629                 1.0623                 1.0648
 Frc consts  --      5.8959                 5.8959                 5.9471
 IR Inten    --     53.6881                40.6990                13.5677

                     76                     77                     78
                      A                      A                      A
 Frequencies --   3078.9955              3082.7068              3115.6928
 Red. masses --      1.0618                 1.0618                 1.0991
 Frc consts  --      5.9310                 5.9451                 6.2861
 IR Inten    --     28.6810                32.1717                37.6932

                     79                     80                     81
                      A                      A                      A
 Frequencies --   3116.4888              3121.9339              3124.4531
 Red. masses --      1.1012                 1.0968                 1.0949
 Frc consts  --      6.3017                 6.2982                 6.2977
 IR Inten    --     36.2965                70.3459                 7.0728

                     82                     83                     84
                      A                      A                      A
 Frequencies --   3125.7126              3130.6312              3135.2802
 Red. masses --      1.1034                 1.1008                 1.0969
 Frc consts  --      6.3518                 6.3563                 6.3528
 IR Inten    --     62.2613                81.4306                29.8911

                     85                     86                     87
                      A                      A                      A
 Frequencies --   3137.3996              3138.4959              3170.9318
 Red. masses --      1.0966                 1.0982                 1.0833
 Frc consts  --      6.3598                 6.3732                 6.4177
 IR Inten    --     44.8316                39.8725                23.4020

 - Thermochemistry -
 -------------------
 Temperature   298.150 Kelvin.  Pressure   1.00000 Atm.
 Atom     1 has atomic number  6 and mass  12.00000

 Molecular mass:   186.12559 amu.
 Principal axes and moments of inertia in atomic units:
                           1         2         3
     Eigenvalues --  1066.736053745.548084054.77206
           X            0.99986   0.01671   0.00279
           Y           -0.01665   0.99965  -0.02038
           Z           -0.00313   0.02033   0.99979
 This molecule is an asymmetric top.
 Rotational symmetry number  1.
 Warning -- assumption of classical behavior for rotation
           may cause significant error
 Rotational temperatures (Kelvin)      0.08120     0.02312     0.02136
 Rotational constants (GHZ):           1.69183     0.48184     0.44509
 Zero-point vibrational energy     737987.2 (Joules/Mol)
                                  176.38317 (Kcal/Mol)
 Warning -- explicit consideration of  17 degrees of freedom as
           vibrations may cause significant error
 Vibrational temperatures:     22.93    36.70   132.29   174.37   273.56
          (Kelvin)            294.33   328.30   426.40   489.76   532.15
                              597.34   617.11   640.01   684.43   749.47
                              756.83   811.07   983.03  1085.49  1138.13
                             1199.94  1235.97  1238.30  1262.36  1297.53
                             1301.56  1305.01  1344.46  1362.45  1427.49
                             1472.86  1503.69  1519.87  1536.51  1559.78
                             1571.20  1593.13  1645.97  1670.47  1687.16
                             1728.36  1759.30  1773.95  1783.69  1807.96
                             1861.81  1876.33  1903.02  1919.96  1949.52
                             1962.35  1966.64  1988.97  1997.03  2002.59
                             2015.79  2024.83  2028.23  2052.95  2061.16
                             2094.23  2112.04  2113.32  2119.80  2126.75
                             2141.42  2163.36  2164.74  2191.16  4359.07
                             4372.63  4402.62  4414.59  4416.03  4429.82
                             4429.99  4435.33  4482.79  4483.93  4491.77
                             4495.39  4497.20  4504.28  4510.97  4514.02
                             4515.60  4562.26

 Zero-point correction=                           0.281084 (Hartree/Particle)
 Thermal correction to Energy=                    0.292969
 Thermal correction to Enthalpy=                  0.293913
 Thermal correction to Gibbs Free Energy=         0.241137
 Sum of electronic and zero-point Energies=           -617.216734
 Sum of electronic and thermal Energies=              -617.204850
 Sum of electronic and thermal Enthalpies=            -617.203906
 Sum of electronic and thermal Free Energies=         -617.256682

                     E (Thermal)             CV                S
                      KCal/Mol        Cal/Mol-Kelvin    Cal/Mol-Kelvin
 Total                  183.841             46.670            111.077
 Electronic               0.000              0.000              0.000
 Translational            0.889              2.981             41.570
 Rotational               0.889              2.981             31.161
 Vibrational            182.063             40.709             38.346
 Vibration     1          0.593              1.986              7.085
 Vibration     2          0.593              1.985              6.151
 Vibration     3          0.602              1.955              3.618
 Vibration     4          0.609              1.932              3.081
 Vibration     5          0.633              1.853              2.227
 Vibration     6          0.640              1.833              2.092
 Vibration     7          0.651              1.798              1.893
 Vibration     8          0.690              1.681              1.437
 Vibration     9          0.720              1.595              1.210
 Vibration    10          0.742              1.534              1.080
 Vibration    11          0.779              1.437              0.909
 Vibration    12          0.790              1.407              0.862
 Vibration    13          0.804              1.372              0.812
 Vibration    14          0.832              1.304              0.722
 Vibration    15          0.876              1.204              0.608
 Vibration    16          0.881              1.192              0.596
 Vibration    17          0.919              1.110              0.516

 Optimization completed.
    -- Stationary point found.
 Normal termination of Gaussian 16 at Fri Mar  8 19:22:31 2019.
