 Gaussian 16, Revision B.01,
 Gaussian 16:  ES64L-G16RevB.01 20-Dec-2017

 ----------------------------------------------------------------------
 #M062X/6-311++G(2d,2p) opt=ModRedundant freq=noraman SCRF=(SMD,solvent
 =water)
 ----------------------------------------------------------------------

 -------------------------------
 4c1_a1_a4_4c1_PHI.inp_extract_8
 -------------------------------
 Symbolic Z-matrix:
 Charge =  0 Multiplicity = 1

 SCF Done:  E(RM062X) =  -617.502830361     A.U. after   12 cycles
 SCF Done:  E(RM062X) =  -617.504829113     A.U. after   10 cycles
 SCF Done:  E(RM062X) =  -617.505072278     A.U. after   10 cycles
 SCF Done:  E(RM062X) =  -617.505195756     A.U. after    9 cycles
 SCF Done:  E(RM062X) =  -617.505200484     A.U. after    8 cycles
 SCF Done:  E(RM062X) =  -617.505203454     A.U. after    8 cycles
 SCF Done:  E(RM062X) =  -617.505203685     A.U. after    7 cycles
 Optimization completed.
    -- Stationary point found.
 Normal termination of Gaussian 16 at Fri Mar  8 16:10:10 2019.

 ----------------------------------------------------------------------
 #N Geom=AllCheck Guess=TCheck SCRF=Check GenChk RM062X/6-311++G(2d,2p)
  Freq
 ----------------------------------------------------------------------

 Structure from the checkpoint file:  "4c1_a1_a4_4c1_PHI.inp_extract_8.chk"
 -------------------------------
 4c1_a1_a4_4c1_PHI.inp_extract_8
 -------------------------------
 Charge =  0 Multiplicity = 1

                         Standard orientation:
 ---------------------------------------------------------------------
 Center     Atomic      Atomic             Coordinates (Angstroms)
 Number     Number       Type             X           Y           Z
 ---------------------------------------------------------------------
      1          6           0        1.724056    1.337549   -0.022056
      2          6           0       -0.956667    0.376617   -0.788130
      3          6           0        0.912231    0.321091    0.770129
      4          6           0       -3.484454   -0.361941    0.377439
      5          6           0        3.453782   -0.192177   -0.467471
      6          8           0        2.504747    0.714252   -1.031068
      7          6           0       -2.591347    0.649121    1.093453
      8          6           0       -2.639680   -1.286669   -0.478741
      9          6           0       -1.734488    1.372800    0.059360
     10          6           0        2.762588   -1.308726    0.295229
     11          8           0       -1.816543   -0.555436   -1.400674
     12          8           0       -0.017960   -0.388865   -0.047055
     13          6           0        1.846470   -0.722098    1.369005
     14          1           0        2.375403    1.872816    0.677796
     15          1           0        1.089633    2.067578   -0.520852
     16          1           0       -0.448704    0.878739   -1.613276
     17          1           0        0.380695    0.845618    1.568006
     18          1           0       -4.196718    0.166724   -0.260537
     19          1           0       -4.054387   -0.962322    1.087066
     20          1           0        4.038351   -0.578478   -1.299705
     21          1           0        4.120488    0.366941    0.199295
     22          1           0       -1.947790    0.129746    1.808423
     23          1           0       -3.189936    1.365335    1.654942
     24          1           0       -3.257005   -1.932903   -1.098558
     25          1           0       -2.005933   -1.915309    0.150056
     26          1           0       -2.373432    1.932408   -0.626663
     27          1           0       -1.055801    2.088911    0.520479
     28          1           0        3.516168   -1.954527    0.746296
     29          1           0        2.185044   -1.914461   -0.404574
     30          1           0        1.258911   -1.499721    1.856878
     31          1           0        2.448118   -0.230114    2.135989
 ---------------------------------------------------------------------

 SCF Done:  E(RM062X) =  -617.505203685     A.U. after    1 cycles

 The electronic state is 1-A.
 Alpha  occ. eigenvalues --  -19.63273 -19.62991 -19.62926 -10.63277 -10.58420
 Alpha  occ. eigenvalues --  -10.57549 -10.57334 -10.57298 -10.52620 -10.52458
 Alpha  occ. eigenvalues --  -10.52419 -10.52276 -10.52244  -1.19810  -1.16262
 Alpha  occ. eigenvalues --   -1.13012  -0.90012  -0.89536  -0.86231  -0.84709
 Alpha  occ. eigenvalues --   -0.74472  -0.73595  -0.72538  -0.70553  -0.65920
 Alpha  occ. eigenvalues --   -0.61555  -0.59371  -0.58425  -0.57143  -0.55502
 Alpha  occ. eigenvalues --   -0.54256  -0.52974  -0.51382  -0.49747  -0.49104
 Alpha  occ. eigenvalues --   -0.47339  -0.47105  -0.45894  -0.45576  -0.44982
 Alpha  occ. eigenvalues --   -0.43304  -0.42485  -0.39923  -0.39524  -0.38985
 Alpha  occ. eigenvalues --   -0.37762  -0.37442  -0.36745  -0.34790  -0.32866
 Alpha  occ. eigenvalues --   -0.31645
 Alpha virt. eigenvalues --    0.00325   0.01311   0.01460   0.01485   0.02729
 Alpha virt. eigenvalues --    0.02936   0.03159   0.03788   0.03917   0.05050
 Alpha virt. eigenvalues --    0.05154   0.05327   0.05903   0.06461   0.07657

 Mulliken charges:
               1
     1  C   -0.498331
     2  C   -0.069138
     3  C    0.153800
     4  C   -0.403878
     5  C   -0.179936
     6  O   -0.344175
     7  C   -0.259983
     8  C   -0.229958
     9  C   -0.263510
    10  C   -0.283364
    11  O   -0.350877
    12  O   -0.377120
    13  C   -0.526303
    14  H    0.198862
    15  H    0.217825
    16  H    0.315958
    17  H    0.248610
    18  H    0.172375
    19  H    0.176686
    20  H    0.211859
    21  H    0.159649
    22  H    0.169123
    23  H    0.190288
    24  H    0.223862
    25  H    0.173472
    26  H    0.220124
    27  H    0.201317
    28  H    0.185125
    29  H    0.171212
    30  H    0.178211
    31  H    0.218217
 Sum of Mulliken charges =  -0.00000

 Dipole moment (field-independent basis, Debye):
    X=              0.0306    Y=              1.7378    Z=              4.8524  Tot=              5.1543
 Quadrupole moment (field-independent basis, Debye-Ang):
   XX=            -70.0750   YY=            -76.4739   ZZ=            -84.8095
   XY=             -2.4446   XZ=              2.3224   YZ=              0.1730

  Exact polarizability: 181.530   0.470 172.803   1.281   0.525 169.139
 Approx polarizability: 145.315   0.306 142.559   1.925   0.328 142.344

                      1                      2                      3
                      A                      A                      A
 Frequencies --     55.8927                63.2837               108.8734
 Red. masses --      4.0546                 3.7547                 3.7265
 Frc consts  --      0.0075                 0.0089                 0.0260
 IR Inten    --      2.2546                 0.1443                 1.2165

                      4                      5                      6
                      A                      A                      A
 Frequencies --    140.2150               198.8628               224.0993
 Red. masses --      3.5172                 2.9883                 3.3024
 Frc consts  --      0.0407                 0.0696                 0.0977
 IR Inten    --      1.8654                 9.5496                 5.8060

                      7                      8                      9
                      A                      A                      A
 Frequencies --    269.7917               296.2710               354.8465
 Red. masses --      2.3349                 2.5828                 2.5093
 Frc consts  --      0.1001                 0.1336                 0.1862
 IR Inten    --      0.5632                 3.2554                 8.9921

                     10                     11                     12
                      A                      A                      A
 Frequencies --    379.2765               415.1922               442.7876
 Red. masses --      2.1843                 3.1036                 2.5563
 Frc consts  --      0.1851                 0.3152                 0.2953
 IR Inten    --      2.2945                19.7489                 2.4615

                     13                     14                     15
                      A                      A                      A
 Frequencies --    448.5425               506.3499               522.9623
 Red. masses --      2.2947                 3.5461                 2.7477
 Frc consts  --      0.2720                 0.5357                 0.4427
 IR Inten    --      7.6053                10.4081                 3.9349

                     16                     17                     18
                      A                      A                      A
 Frequencies --    543.8028               549.3589               684.4396
 Red. masses --      2.2100                 2.3469                 2.5048
 Frc consts  --      0.3851                 0.4173                 0.6913
 IR Inten    --      0.4109                 5.4742                 5.5794

                     19                     20                     21
                      A                      A                      A
 Frequencies --    749.1914               828.4263               843.0779
 Red. masses --      2.5225                 1.8010                 3.3114
 Frc consts  --      0.8342                 0.7282                 1.3868
 IR Inten    --     15.9600                 0.1179                 8.6319

                     22                     23                     24
                      A                      A                      A
 Frequencies --    848.1788               873.2134               876.8705
 Red. masses --      2.8249                 1.8904                 2.0188
 Frc consts  --      1.1974                 0.8493                 0.9146
 IR Inten    --      2.4404                26.5772                22.8575

                     25                     26                     27
                      A                      A                      A
 Frequencies --    897.6340               907.5144               912.1883
 Red. masses --      2.3775                 2.2983                 2.3075
 Frc consts  --      1.1287                 1.1152                 1.1313
 IR Inten    --     11.1822                72.1364                24.3559

                     28                     29                     30
                      A                      A                      A
 Frequencies --    936.3832               950.7157              1002.3438
 Red. masses --      1.6915                 1.8525                 1.9004
 Frc consts  --      0.8738                 0.9865                 1.1249
 IR Inten    --     20.9237                15.7057                18.8990

                     31                     32                     33
                      A                      A                      A
 Frequencies --   1031.0186              1038.2330              1055.8672
 Red. masses --      2.0685                 2.5468                 1.8367
 Frc consts  --      1.2955                 1.6175                 1.2065
 IR Inten    --     15.9034                49.7925                 4.1767

                     34                     35                     36
                      A                      A                      A
 Frequencies --   1068.1696              1069.9867              1077.7015
 Red. masses --      2.1466                 1.9167                 1.6339
 Frc consts  --      1.4430                 1.2929                 1.1181
 IR Inten    --    158.7193                40.4109                84.2627

                     37                     38                     39
                      A                      A                      A
 Frequencies --   1107.7186              1152.7082              1159.3081
 Red. masses --      1.6624                 2.5422                 2.5321
 Frc consts  --      1.2018                 1.9902                 2.0050
 IR Inten    --     57.5697                82.1206               190.7506

                     40                     41                     42
                      A                      A                      A
 Frequencies --   1174.4709              1196.1441              1211.0073
 Red. masses --      2.5124                 1.7842                 1.4555
 Frc consts  --      2.0419                 1.5041                 1.2577
 IR Inten    --     69.7898                49.7092                16.2614

                     43                     44                     45
                      A                      A                      A
 Frequencies --   1229.6016              1243.9453              1274.3590
 Red. masses --      1.3897                 1.7756                 1.4989
 Frc consts  --      1.2379                 1.6188                 1.4342
 IR Inten    --     35.8739                59.0995                57.2090

                     46                     47                     48
                      A                      A                      A
 Frequencies --   1290.3142              1303.1563              1322.9175
 Red. masses --      1.4517                 1.2532                 1.2346
 Frc consts  --      1.4240                 1.2539                 1.2730
 IR Inten    --    155.2488                28.4510                42.6209

                     49                     50                     51
                      A                      A                      A
 Frequencies --   1337.7326              1355.6632              1366.6738
 Red. masses --      1.2085                 1.3651                 1.3267
 Frc consts  --      1.2742                 1.4781                 1.4600
 IR Inten    --     17.5846                12.2038                 2.0831

                     52                     53                     54
                      A                      A                      A
 Frequencies --   1371.2379              1380.2993              1384.9732
 Red. masses --      1.7543                 1.3916                 1.4687
 Frc consts  --      1.9435                 1.5621                 1.6599
 IR Inten    --      8.3598                17.6474                20.1138

                     55                     56                     57
                      A                      A                      A
 Frequencies --   1390.6789              1396.9898              1407.4982
 Red. masses --      1.7175                 1.4025                 1.3272
 Frc consts  --      1.9571                 1.6127                 1.5491
 IR Inten    --     19.3085                16.8456                 2.6722

                     58                     59                     60
                      A                      A                      A
 Frequencies --   1410.2313              1418.5133              1435.7545
 Red. masses --      1.3662                 1.3495                 1.3521
 Frc consts  --      1.6008                 1.5999                 1.6421
 IR Inten    --      2.0687                 3.4467                 6.7475

                     61                     62                     63
                      A                      A                      A
 Frequencies --   1460.1703              1469.3685              1471.2294
 Red. masses --      1.4535                 1.0872                 1.0963
 Frc consts  --      1.8259                 1.3830                 1.3981
 IR Inten    --     32.5218                 6.7775                 5.4715

                     64                     65                     66
                      A                      A                      A
 Frequencies --   1479.4024              1483.6735              1492.3621
 Red. masses --      1.1211                 1.1168                 1.1194
 Frc consts  --      1.4456                 1.4484                 1.4689
 IR Inten    --     14.2746                14.6078                24.3796

                     67                     68                     69
                      A                      A                      A
 Frequencies --   1501.2370              1508.0502              1509.7965
 Red. masses --      1.0890                 1.0990                 1.1125
 Frc consts  --      1.4461                 1.4725                 1.4942
 IR Inten    --      4.9848                 2.1877                27.5932

                     70                     71                     72
                      A                      A                      A
 Frequencies --   3032.0440              3043.4247              3061.3172
 Red. masses --      1.0698                 1.0700                 1.0685
 Frc consts  --      5.7944                 5.8391                 5.8998
 IR Inten    --     75.9955                45.9296                24.9166

                     73                     74                     75
                      A                      A                      A
 Frequencies --   3066.7824              3069.9423              3077.0089
 Red. masses --      1.0630                 1.0748                 1.0640
 Frc consts  --      5.8903                 5.9679                 5.9353
 IR Inten    --     47.1822                15.2543                61.5330

                     76                     77                     78
                      A                      A                      A
 Frequencies --   3079.5600              3081.2695              3082.1342
 Red. masses --      1.0676                 1.0617                 1.0715
 Frc consts  --      5.9652                 5.9389                 5.9973
 IR Inten    --     70.8594                31.0989                24.6756

                     79                     80                     81
                      A                      A                      A
 Frequencies --   3093.4429              3117.9688              3120.5299
 Red. masses --      1.0835                 1.0970                 1.1013
 Frc consts  --      6.1088                 6.2834                 6.3187
 IR Inten    --     73.8266                35.0163                45.6628

                     82                     83                     84
                      A                      A                      A
 Frequencies --   3121.2802              3127.7184              3132.7087
 Red. masses --      1.1014                 1.1040                 1.0994
 Frc consts  --      6.3220                 6.3635                 6.3570
 IR Inten    --     54.6852                59.1231                46.9562

                     85                     86                     87
                      A                      A                      A
 Frequencies --   3137.6975              3142.2763              3142.6845
 Red. masses --      1.0966                 1.0957                 1.1009
 Frc consts  --      6.3610                 6.3745                 6.4064
 IR Inten    --     49.8015                15.3428                51.1649

 - Thermochemistry -
 -------------------
 Temperature   298.150 Kelvin.  Pressure   1.00000 Atm.
 Atom     1 has atomic number  6 and mass  12.00000

 Molecular mass:   186.12559 amu.
 Principal axes and moments of inertia in atomic units:
                           1         2         3
     Eigenvalues --  1027.678583929.772624004.84783
           X            0.99997  -0.00702  -0.00087
           Y            0.00702   0.99996   0.00532
           Z            0.00083  -0.00533   0.99999
 This molecule is an asymmetric top.
 Rotational symmetry number  1.
 Warning -- assumption of classical behavior for rotation
           may cause significant error
 Rotational temperatures (Kelvin)      0.08428     0.02204     0.02163
 Rotational constants (GHZ):           1.75613     0.45925     0.45064
 Zero-point vibrational energy     739283.4 (Joules/Mol)
                                  176.69298 (Kcal/Mol)
 Warning -- explicit consideration of  17 degrees of freedom as
           vibrations may cause significant error
 Vibrational temperatures:     80.42    91.05   156.64   201.74   286.12
          (Kelvin)            322.43   388.17   426.27   510.54   545.69
                              597.37   637.07   645.35   728.52   752.43
                              782.41   790.40   984.76  1077.92  1191.92
                             1213.00  1220.34  1256.36  1261.62  1291.50
                             1305.71  1312.44  1347.25  1367.87  1442.15
                             1483.41  1493.79  1519.16  1536.86  1539.47
                             1550.57  1593.76  1658.49  1667.99  1689.80
                             1720.98  1742.37  1769.12  1789.76  1833.52
                             1856.47  1874.95  1903.38  1924.70  1950.50
                             1966.34  1972.91  1985.94  1992.67  2000.88
                             2009.96  2025.08  2029.01  2040.92  2065.73
                             2100.86  2114.09  2116.77  2128.53  2134.68
                             2147.18  2159.95  2169.75  2172.26  4362.44
                             4378.81  4404.55  4412.42  4416.96  4427.13
                             4430.80  4433.26  4434.50  4450.77  4486.06
                             4489.75  4490.83  4500.09  4507.27  4514.45
                             4521.03  4521.62

 Zero-point correction=                           0.281578 (Hartree/Particle)
 Thermal correction to Energy=                    0.293047
 Thermal correction to Enthalpy=                  0.293991
 Thermal correction to Gibbs Free Energy=         0.243938
 Sum of electronic and zero-point Energies=           -617.223625
 Sum of electronic and thermal Energies=              -617.212157
 Sum of electronic and thermal Enthalpies=            -617.211213
 Sum of electronic and thermal Free Energies=         -617.261266

                     E (Thermal)             CV                S
                      KCal/Mol        Cal/Mol-Kelvin    Cal/Mol-Kelvin
 Total                  183.890             46.262            105.346
 Electronic               0.000              0.000              0.000
 Translational            0.889              2.981             41.570
 Rotational               0.889              2.981             31.159
 Vibrational            182.112             40.301             32.617
 Vibration     1          0.596              1.975              4.597
 Vibration     2          0.597              1.972              4.352
 Vibration     3          0.606              1.942              3.289
 Vibration     4          0.615              1.913              2.801
 Vibration     5          0.637              1.841              2.144
 Vibration     6          0.649              1.804              1.926
 Vibration     7          0.674              1.729              1.598
 Vibration     8          0.690              1.681              1.438
 Vibration     9          0.731              1.565              1.145
 Vibration    10          0.749              1.514              1.042
 Vibration    11          0.779              1.437              0.908
 Vibration    12          0.802              1.377              0.818
 Vibration    13          0.808              1.364              0.800
 Vibration    14          0.862              1.236              0.642
 Vibration    15          0.878              1.199              0.603
 Vibration    16          0.899              1.153              0.557
 Vibration    17          0.905              1.141              0.546

 Optimization completed.
    -- Stationary point found.
 Normal termination of Gaussian 16 at Fri Mar  8 17:13:53 2019.
