 Gaussian 16, Revision B.01,
 Gaussian 16:  ES64L-G16RevB.01 20-Dec-2017

 ----------------------------------------------------------------------
 #M062X/6-311++G(2d,2p) opt=ModRedundant freq=noraman SCRF=(SMD,solvent
 =water)
 ----------------------------------------------------------------------

 -------------------------------
 4c1_a1_a4_4c1_PHI.inp_extract_1
 -------------------------------
 Symbolic Z-matrix:
 Charge =  0 Multiplicity = 1

 SCF Done:  E(RM062X) =  -617.506895537     A.U. after   12 cycles
 SCF Done:  E(RM062X) =  -617.508555781     A.U. after   10 cycles
 SCF Done:  E(RM062X) =  -617.508668239     A.U. after    9 cycles
 SCF Done:  E(RM062X) =  -617.508681688     A.U. after    9 cycles
 SCF Done:  E(RM062X) =  -617.508683636     A.U. after    8 cycles
 SCF Done:  E(RM062X) =  -617.508684341     A.U. after    8 cycles
 Optimization completed.
    -- Stationary point found.
 Normal termination of Gaussian 16 at Fri Mar  8 12:53:52 2019.

 ----------------------------------------------------------------------
 #N Geom=AllCheck Guess=TCheck SCRF=Check GenChk RM062X/6-311++G(2d,2p)
  Freq
 ----------------------------------------------------------------------

 Structure from the checkpoint file:  "4c1_a1_a4_4c1_PHI.inp_extract_1.chk"
 -------------------------------
 4c1_a1_a4_4c1_PHI.inp_extract_1
 -------------------------------
 Charge =  0 Multiplicity = 1

                         Standard orientation:
 ---------------------------------------------------------------------
 Center     Atomic      Atomic             Coordinates (Angstroms)
 Number     Number       Type             X           Y           Z
 ---------------------------------------------------------------------
      1          6           0        1.798547   -1.472881   -0.003236
      2          6           0       -1.100149    0.565611   -0.750189
      3          6           0        1.069376   -0.412480   -0.805440
      4          6           0       -3.420048   -0.382416    0.671180
      5          6           0        3.383712    0.061822    0.817119
      6          8           0        2.415854   -0.931147    1.156737
      7          6           0       -2.591672    0.755892    1.262543
      8          6           0       -2.543477   -1.255376   -0.207330
      9          6           0       -1.893673    1.511786    0.133557
     10          6           0        2.736571    1.229897    0.094092
     11          8           0       -1.908633   -0.490169   -1.239672
     12          8           0       -0.020572    0.057689   -0.004014
     13          6           0        2.012741    0.733859   -1.156504
     14          1           0        2.555981   -1.942318   -0.640042
     15          1           0        1.099436   -2.233970    0.338793
     16          1           0       -0.734300    1.073422   -1.643264
     17          1           0        0.674183   -0.882670   -1.708908
     18          1           0       -4.233419    0.027532    0.067392
     19          1           0       -3.863739   -0.997811    1.454326
     20          1           0        3.841623    0.374138    1.753287
     21          1           0        4.154267   -0.395967    0.185725
     22          1           0       -1.848235    0.346657    1.950067
     23          1           0       -3.221019    1.436824    1.834432
     24          1           0       -3.124088   -2.015696   -0.724955
     25          1           0       -1.779059   -1.755981    0.392643
     26          1           0       -2.638709    2.001393   -0.496214
     27          1           0       -1.220248    2.278845    0.514944
     28          1           0        3.501722    1.960561   -0.168369
     29          1           0        2.030840    1.718136    0.768730
     30          1           0        1.458569    1.540310   -1.637439
     31          1           0        2.741427    0.361329   -1.880309
 ---------------------------------------------------------------------

 SCF Done:  E(RM062X) =  -617.508684341     A.U. after    1 cycles

 The electronic state is 1-A.
 Alpha  occ. eigenvalues --  -19.63038 -19.62929 -19.62918 -10.63069 -10.58283
 Alpha  occ. eigenvalues --  -10.57559 -10.57314 -10.57209 -10.52529 -10.52428
 Alpha  occ. eigenvalues --  -10.52345 -10.52284 -10.52178  -1.19767  -1.16188
 Alpha  occ. eigenvalues --   -1.12999  -0.90352  -0.89084  -0.86818  -0.84078
 Alpha  occ. eigenvalues --   -0.74112  -0.73249  -0.72177  -0.71254  -0.65854
 Alpha  occ. eigenvalues --   -0.62109  -0.59326  -0.57855  -0.57038  -0.54955
 Alpha  occ. eigenvalues --   -0.53991  -0.52753  -0.51375  -0.50958  -0.49057
 Alpha  occ. eigenvalues --   -0.47614  -0.46392  -0.45763  -0.45290  -0.44541
 Alpha  occ. eigenvalues --   -0.42726  -0.42514  -0.41432  -0.39532  -0.38722
 Alpha  occ. eigenvalues --   -0.37794  -0.37281  -0.35835  -0.34802  -0.33256
 Alpha  occ. eigenvalues --   -0.31966
 Alpha virt. eigenvalues --    0.00339   0.01300   0.01395   0.01467   0.02694
 Alpha virt. eigenvalues --    0.02956   0.03152   0.03747   0.03877   0.05130
 Alpha virt. eigenvalues --    0.05207   0.05251   0.05923   0.06195   0.07521

 Mulliken charges:
               1
     1  C   -0.428173
     2  C   -0.077794
     3  C    0.131630
     4  C   -0.373598
     5  C   -0.237159
     6  O   -0.352028
     7  C   -0.343612
     8  C   -0.136912
     9  C   -0.336863
    10  C   -0.309608
    11  O   -0.359633
    12  O   -0.300638
    13  C   -0.369470
    14  H    0.198501
    15  H    0.206491
    16  H    0.288434
    17  H    0.273786
    18  H    0.169301
    19  H    0.178078
    20  H    0.206952
    21  H    0.161665
    22  H    0.184709
    23  H    0.189233
    24  H    0.217070
    25  H    0.131152
    26  H    0.191698
    27  H    0.173073
    28  H    0.182600
    29  H    0.162453
    30  H    0.156820
    31  H    0.221842
 Sum of Mulliken charges =  -0.00000

 Dipole moment (field-independent basis, Debye):
    X=              0.6320    Y=              1.4151    Z=             -1.7730  Tot=              2.3549
 Quadrupole moment (field-independent basis, Debye-Ang):
   XX=            -70.2228   YY=            -75.8017   ZZ=            -84.3978
   XY=              2.5252   XZ=             -9.5030   YZ=              1.0849

  Exact polarizability: 181.049   3.236 173.078  -0.606   0.750 168.440
 Approx polarizability: 145.462   2.190 141.577  -0.052   0.190 142.075

                      1                      2                      3
                      A                      A                      A
 Frequencies --     31.3036                44.9349                74.1833
 Red. masses --      3.5951                 3.6543                 3.8847
 Frc consts  --      0.0021                 0.0043                 0.0126
 IR Inten    --      5.3518                 0.0084                 3.1986

                      4                      5                      6
                      A                      A                      A
 Frequencies --    146.8382               166.7205               244.4314
 Red. masses --      3.3205                 3.5088                 2.8529
 Frc consts  --      0.0422                 0.0575                 0.1004
 IR Inten    --      1.1349                 1.3021                13.7734

                      7                      8                      9
                      A                      A                      A
 Frequencies --    248.2656               279.3540               338.9534
 Red. masses --      3.0893                 2.1267                 2.0498
 Frc consts  --      0.1122                 0.0978                 0.1387
 IR Inten    --      5.7182                 3.8635                 2.6515

                     10                     11                     12
                      A                      A                      A
 Frequencies --    394.3955               410.9376               434.5443
 Red. masses --      1.9821                 2.8343                 2.9261
 Frc consts  --      0.1817                 0.2820                 0.3255
 IR Inten    --      7.0184                 2.7955                18.7899

                     13                     14                     15
                      A                      A                      A
 Frequencies --    439.7935               510.9142               521.5306
 Red. masses --      2.4056                 4.0096                 2.2854
 Frc consts  --      0.2741                 0.6167                 0.3662
 IR Inten    --      1.2187                12.1611                 1.3211

                     16                     17                     18
                      A                      A                      A
 Frequencies --    531.7215               571.9011               668.3453
 Red. masses --      2.3977                 3.2725                 2.4647
 Frc consts  --      0.3994                 0.6306                 0.6487
 IR Inten    --      5.6709                21.7276                 6.0126

                     19                     20                     21
                      A                      A                      A
 Frequencies --    747.7180               832.8814               840.5413
 Red. masses --      2.5387                 1.7480                 2.6945
 Frc consts  --      0.8363                 0.7144                 1.1216
 IR Inten    --      0.9778                 2.6408                13.7187

                     22                     23                     24
                      A                      A                      A
 Frequencies --    851.3697               869.1524               879.4224
 Red. masses --      3.3629                 1.8787                 1.8181
 Frc consts  --      1.4361                 0.8362                 0.8284
 IR Inten    --      0.5960                 8.3340                11.2853

                     25                     26                     27
                      A                      A                      A
 Frequencies --    899.6203               904.5454               911.2643
 Red. masses --      2.3985                 2.3791                 2.3510
 Frc consts  --      1.1437                 1.1469                 1.1502
 IR Inten    --     28.9877                 2.1887                98.5402

                     28                     29                     30
                      A                      A                      A
 Frequencies --    936.4409               947.5578              1014.9578
 Red. masses --      1.9546                 1.5791                 1.7295
 Frc consts  --      1.0099                 0.8354                 1.0497
 IR Inten    --      2.8328                13.5252                30.2719

                     31                     32                     33
                      A                      A                      A
 Frequencies --   1034.3378              1039.8224              1056.9115
 Red. masses --      2.3973                 2.0372                 1.9599
 Frc consts  --      1.5111                 1.2978                 1.2899
 IR Inten    --      6.3008                39.9741                26.3636

                     34                     35                     36
                      A                      A                      A
 Frequencies --   1063.9000              1066.1400              1081.4304
 Red. masses --      1.7154                 1.7104                 2.5174
 Frc consts  --      1.1440                 1.1455                 1.7346
 IR Inten    --     18.7572                52.3797               341.7281

                     37                     38                     39
                      A                      A                      A
 Frequencies --   1094.2082              1140.1973              1160.4129
 Red. masses --      1.7013                 2.6039                 2.4189
 Frc consts  --      1.2001                 1.9945                 1.9191
 IR Inten    --     56.2833               232.9577                16.5062

                     40                     41                     42
                      A                      A                      A
 Frequencies --   1175.2919              1188.6263              1211.7903
 Red. masses --      2.7510                 3.1436                 1.5073
 Frc consts  --      2.2389                 2.6168                 1.3041
 IR Inten    --     89.0814               122.4839                27.6049

                     43                     44                     45
                      A                      A                      A
 Frequencies --   1223.4341              1234.7593              1239.9457
 Red. masses --      1.3410                 1.7584                 1.7539
 Frc consts  --      1.1826                 1.5796                 1.5887
 IR Inten    --     29.3745                68.2520                91.9209

                     46                     47                     48
                      A                      A                      A
 Frequencies --   1281.8187              1298.8732              1315.8165
 Red. masses --      1.2158                 1.1406                 1.1491
 Frc consts  --      1.1770                 1.1337                 1.1722
 IR Inten    --     33.8607                 4.3981                14.0690

                     49                     50                     51
                      A                      A                      A
 Frequencies --   1336.0843              1355.5277              1359.2839
 Red. masses --      1.2300                 1.3341                 1.3823
 Frc consts  --      1.2937                 1.4443                 1.5047
 IR Inten    --     18.0123                17.0683                 8.6865

                     52                     53                     54
                      A                      A                      A
 Frequencies --   1366.6735              1382.5040              1387.6409
 Red. masses --      1.5674                 1.4170                 1.4958
 Frc consts  --      1.7249                 1.5957                 1.6970
 IR Inten    --      6.9554                17.2869                20.7038

                     55                     56                     57
                      A                      A                      A
 Frequencies --   1389.7705              1395.4058              1401.9164
 Red. masses --      1.5275                 1.5497                 1.3440
 Frc consts  --      1.7383                 1.7779                 1.5563
 IR Inten    --      8.3731                25.8981                 2.6812

                     58                     59                     60
                      A                      A                      A
 Frequencies --   1408.3912              1426.3576              1431.7143
 Red. masses --      1.4073                 1.3862                 1.4914
 Frc consts  --      1.6446                 1.6616                 1.8012
 IR Inten    --     13.2070                22.9416                 4.7988

                     61                     62                     63
                      A                      A                      A
 Frequencies --   1437.7932              1469.0894              1470.5998
 Red. masses --      1.3094                 1.0902                 1.1120
 Frc consts  --      1.5948                 1.3862                 1.4170
 IR Inten    --     14.5549                 6.5802                 5.3968

                     64                     65                     66
                      A                      A                      A
 Frequencies --   1473.5733              1479.0731              1488.9990
 Red. masses --      1.0872                 1.1178                 1.0895
 Frc consts  --      1.3909                 1.4408                 1.4232
 IR Inten    --      9.6489                19.0562                 5.8095

                     67                     68                     69
                      A                      A                      A
 Frequencies --   1490.4952              1503.3378              1505.7489
 Red. masses --      1.1160                 1.0990                 1.0929
 Frc consts  --      1.4607                 1.4634                 1.4599
 IR Inten    --     14.9668                 6.5471                 4.9025

                     70                     71                     72
                      A                      A                      A
 Frequencies --   3030.0465              3045.9762              3060.4223
 Red. masses --      1.0699                 1.0675                 1.0686
 Frc consts  --      5.7876                 5.8355                 5.8969
 IR Inten    --     75.0234                52.1496                30.1014

                     73                     74                     75
                      A                      A                      A
 Frequencies --   3066.6725              3069.3703              3071.6312
 Red. masses --      1.0637                 1.0660                 1.0633
 Frc consts  --      5.8941                 5.9169                 5.9107
 IR Inten    --     57.3362                14.4573                40.5968

                     76                     77                     78
                      A                      A                      A
 Frequencies --   3075.8630              3079.5655              3082.0198
 Red. masses --      1.0617                 1.0647                 1.0801
 Frc consts  --      5.9179                 5.9492                 6.0447
 IR Inten    --     34.3370                22.7484                54.0590

                     79                     80                     81
                      A                      A                      A
 Frequencies --   3101.8738              3116.4077              3116.5929
 Red. masses --      1.0868                 1.0986                 1.0990
 Frc consts  --      6.1610                 6.2861                 6.2893
 IR Inten    --     66.3261                55.6741                18.6767

                     82                     83                     84
                      A                      A                      A
 Frequencies --   3120.6576              3123.5563              3130.0090
 Red. masses --      1.1020                 1.1037                 1.1044
 Frc consts  --      6.3231                 6.3443                 6.3750
 IR Inten    --     66.7195                53.5505                52.4785

                     85                     86                     87
                      A                      A                      A
 Frequencies --   3136.2393              3137.8532              3139.3478
 Red. masses --      1.0968                 1.0971                 1.0994
 Frc consts  --      6.3563                 6.3644                 6.3841
 IR Inten    --     44.8635                35.0054                41.4734

 - Thermochemistry -
 -------------------
 Temperature   298.150 Kelvin.  Pressure   1.00000 Atm.
 Atom     1 has atomic number  6 and mass  12.00000

 Molecular mass:   186.12559 amu.
 Principal axes and moments of inertia in atomic units:
                           1         2         3
     Eigenvalues --  1092.259263959.378544077.00584
           X            0.99986   0.00610  -0.01571
           Y           -0.00546   0.99916   0.04070
           Z            0.01594  -0.04060   0.99905
 This molecule is an asymmetric top.
 Rotational symmetry number  1.
 Warning -- assumption of classical behavior for rotation
           may cause significant error
 Rotational temperatures (Kelvin)      0.07930     0.02188     0.02124
 Rotational constants (GHZ):           1.65230     0.45581     0.44266
 Zero-point vibrational energy     737296.5 (Joules/Mol)
                                  176.21808 (Kcal/Mol)
 Warning -- explicit consideration of  17 degrees of freedom as
           vibrations may cause significant error
 Vibrational temperatures:     45.04    64.65   106.73   211.27   239.87
          (Kelvin)            351.68   357.20   401.93   487.68   567.45
                              591.25   625.21   632.76   735.09   750.37
                              765.03   822.84   961.60  1075.80  1198.33
                             1209.35  1224.93  1250.52  1265.29  1294.35
                             1301.44  1311.11  1347.33  1363.32  1460.30
                             1488.18  1496.07  1520.66  1530.71  1533.94
                             1555.94  1574.32  1640.49  1669.58  1690.98
                             1710.17  1743.50  1760.25  1776.54  1784.01
                             1844.25  1868.79  1893.17  1922.33  1950.30
                             1955.71  1966.34  1989.11  1996.51  1999.57
                             2007.68  2017.05  2026.36  2052.21  2059.92
                             2068.66  2113.69  2115.87  2120.14  2128.06
                             2142.34  2144.49  2162.97  2166.44  4359.56
                             4382.48  4403.27  4412.26  4416.14  4419.39
                             4425.48  4430.81  4434.34  4462.90  4483.82
                             4484.08  4489.93  4494.10  4503.38  4512.35
                             4514.67  4516.82

 Zero-point correction=                           0.280821 (Hartree/Particle)
 Thermal correction to Energy=                    0.292537
 Thermal correction to Enthalpy=                  0.293481
 Thermal correction to Gibbs Free Energy=         0.241963
 Sum of electronic and zero-point Energies=           -617.227863
 Sum of electronic and thermal Energies=              -617.216147
 Sum of electronic and thermal Enthalpies=            -617.215203
 Sum of electronic and thermal Free Energies=         -617.266722

                     E (Thermal)             CV                S
                      KCal/Mol        Cal/Mol-Kelvin    Cal/Mol-Kelvin
 Total                  183.570             46.494            108.429
 Electronic               0.000              0.000              0.000
 Translational            0.889              2.981             41.570
 Rotational               0.889              2.981             31.245
 Vibrational            181.792             40.532             35.615
 Vibration     1          0.594              1.983              5.745
 Vibration     2          0.595              1.979              5.029
 Vibration     3          0.599              1.966              4.039
 Vibration     4          0.617              1.906              2.713
 Vibration     5          0.624              1.883              2.472
 Vibration     6          0.660              1.772              1.770
 Vibration     7          0.662              1.766              1.743
 Vibration     8          0.680              1.712              1.538
 Vibration     9          0.719              1.598              1.217
 Vibration    10          0.761              1.482              0.983
 Vibration    11          0.775              1.446              0.923
 Vibration    12          0.795              1.395              0.844
 Vibration    13          0.800              1.383              0.827
 Vibration    14          0.866              1.226              0.631
 Vibration    15          0.877              1.202              0.606
 Vibration    16          0.887              1.180              0.583
 Vibration    17          0.928              1.092              0.501

                           ! Non-Optimized Parameters !
 Normal termination of Gaussian 16 at Fri Mar  8 13:58:06 2019.
