 Gaussian 16, Revision B.01,
 Gaussian 16:  ES64L-G16RevB.01 20-Dec-2017

 ----------------------------------------------------------------------
 #M062X/6-311++G(2d,2p) opt=ModRedundant freq=noraman SCRF=(SMD,solvent
 =water)
 ----------------------------------------------------------------------

 --------------------------------
 4c1_a1_a4_4c1_PHI.inp_extract_25
 --------------------------------
 Symbolic Z-matrix:
 Charge =  0 Multiplicity = 1

 SCF Done:  E(RM062X) =  -617.507261354     A.U. after   12 cycles
 SCF Done:  E(RM062X) =  -617.508979364     A.U. after   10 cycles
 SCF Done:  E(RM062X) =  -617.509105485     A.U. after    9 cycles
 SCF Done:  E(RM062X) =  -617.509124326     A.U. after    9 cycles
 SCF Done:  E(RM062X) =  -617.509128980     A.U. after    8 cycles
 SCF Done:  E(RM062X) =  -617.509132067     A.U. after    8 cycles
 SCF Done:  E(RM062X) =  -617.509132585     A.U. after    8 cycles
 SCF Done:  E(RM062X) =  -617.509132848     A.U. after    7 cycles
 Optimization completed.
    -- Stationary point found.
 Normal termination of Gaussian 16 at Fri Mar  8 22:00:44 2019.

 ----------------------------------------------------------------------
 #N Geom=AllCheck Guess=TCheck SCRF=Check GenChk RM062X/6-311++G(2d,2p)
  Freq
 ----------------------------------------------------------------------

 Structure from the checkpoint file:  "4c1_a1_a4_4c1_PHI.inp_extract_25.chk"
 --------------------------------
 4c1_a1_a4_4c1_PHI.inp_extract_25
 --------------------------------
 Charge =  0 Multiplicity = 1

                         Standard orientation:
 ---------------------------------------------------------------------
 Center     Atomic      Atomic             Coordinates (Angstroms)
 Number     Number       Type             X           Y           Z
 ---------------------------------------------------------------------
      1          6           0        1.704353   -1.465922   -0.020315
      2          6           0       -1.085182    0.804553   -0.535131
      3          6           0        0.994805   -0.348115   -0.760244
      4          6           0       -3.405402   -0.582444    0.454015
      5          6           0        3.427017   -0.048463    0.729742
      6          8           0        2.420085   -0.986063    1.110121
      7          6           0       -2.667071    0.390316    1.371100
      8          6           0       -2.448776   -1.148746   -0.578732
      9          6           0       -1.958090    1.448661    0.527301
     10          6           0        2.814385    1.170744    0.063665
     11          8           0       -1.819688   -0.105164   -1.332913
     12          8           0       -0.016277    0.160258    0.117120
     13          6           0        1.987876    0.744052   -1.148263
     14          1           0        2.393756   -1.966099   -0.708881
     15          1           0        0.981992   -2.191368    0.349903
     16          1           0       -0.706139    1.544772   -1.241283
     17          1           0        0.520806   -0.774750   -1.645993
     18          1           0       -4.215575   -0.061147   -0.061753
     19          1           0       -3.845322   -1.403306    1.021049
     20          1           0        3.957173    0.216916    1.642025
     21          1           0        4.129376   -0.540877    0.046892
     22          1           0       -1.935777   -0.156939    1.969510
     23          1           0       -3.358688    0.868514    2.063850
     24          1           0       -2.966587   -1.764796   -1.310498
     25          1           0       -1.680055   -1.759247   -0.096844
     26          1           0       -2.696268    2.066553    0.013165
     27          1           0       -1.339373    2.104784    1.138703
     28          1           0        3.608219    1.855932   -0.234102
     29          1           0        2.183193    1.691068    0.786407
     30          1           0        1.465038    1.593283   -1.587716
     31          1           0        2.647763    0.336652   -1.917886
 ---------------------------------------------------------------------

 SCF Done:  E(RM062X) =  -617.509132848     A.U. after    1 cycles

 The electronic state is 1-A.
 Alpha  occ. eigenvalues --  -19.63060 -19.62963 -19.62898 -10.63047 -10.58144
 Alpha  occ. eigenvalues --  -10.57535 -10.57297 -10.57236 -10.52494 -10.52441
 Alpha  occ. eigenvalues --  -10.52338 -10.52264 -10.52187  -1.19823  -1.16174
 Alpha  occ. eigenvalues --   -1.12957  -0.90399  -0.89019  -0.86858  -0.84029
 Alpha  occ. eigenvalues --   -0.74146  -0.73359  -0.72128  -0.71053  -0.65762
 Alpha  occ. eigenvalues --   -0.62077  -0.59286  -0.58013  -0.57109  -0.55077
 Alpha  occ. eigenvalues --   -0.53716  -0.52811  -0.51216  -0.51019  -0.49052
 Alpha  occ. eigenvalues --   -0.47436  -0.46419  -0.45825  -0.45362  -0.44596
 Alpha  occ. eigenvalues --   -0.42863  -0.42500  -0.41131  -0.39402  -0.38767
 Alpha  occ. eigenvalues --   -0.37874  -0.37300  -0.35708  -0.34911  -0.33158
 Alpha  occ. eigenvalues --   -0.31976
 Alpha virt. eigenvalues --    0.00344   0.01305   0.01406   0.01478   0.02706
 Alpha virt. eigenvalues --    0.02953   0.03152   0.03732   0.03993   0.05084
 Alpha virt. eigenvalues --    0.05190   0.05259   0.05888   0.06233   0.07590

 Mulliken charges:
               1
     1  C   -0.381691
     2  C   -0.069898
     3  C    0.029782
     4  C   -0.382610
     5  C   -0.240918
     6  O   -0.353846
     7  C   -0.331185
     8  C   -0.120835
     9  C   -0.357239
    10  C   -0.319318
    11  O   -0.353535
    12  O   -0.286775
    13  C   -0.346235
    14  H    0.197878
    15  H    0.221553
    16  H    0.282189
    17  H    0.287054
    18  H    0.171001
    19  H    0.179722
    20  H    0.207276
    21  H    0.160868
    22  H    0.182614
    23  H    0.188840
    24  H    0.217555
    25  H    0.115056
    26  H    0.192190
    27  H    0.180376
    28  H    0.182861
    29  H    0.166537
    30  H    0.163542
    31  H    0.217192
 Sum of Mulliken charges =   0.00000

 Dipole moment (field-independent basis, Debye):
    X=              0.2936    Y=              0.8316    Z=             -1.7595  Tot=              1.9681
 Quadrupole moment (field-independent basis, Debye-Ang):
   XX=            -70.2328   YY=            -75.2655   ZZ=            -85.3149
   XY=              3.8465   XZ=             -9.0824   YZ=              2.8726

  Exact polarizability: 181.028   3.119 173.289  -0.089   1.570 168.177
 Approx polarizability: 145.317   1.871 142.146   0.375   0.470 141.795

                      1                      2                      3
                      A                      A                      A
 Frequencies --     20.8063                59.4600                79.4359
 Red. masses --      3.6136                 3.5609                 3.8462
 Frc consts  --      0.0009                 0.0074                 0.0143
 IR Inten    --      2.7078                 2.7250                 2.9988

                      4                      5                      6
                      A                      A                      A
 Frequencies --    158.5911               159.3249               243.4606
 Red. masses --      3.5708                 3.1947                 2.7963
 Frc consts  --      0.0529                 0.0478                 0.0977
 IR Inten    --      0.6110                 1.3486                19.6472

                      7                      8                      9
                      A                      A                      A
 Frequencies --    258.6396               279.3873               337.8482
 Red. masses --      3.3946                 2.1633                 2.0374
 Frc consts  --      0.1338                 0.0995                 0.1370
 IR Inten    --      1.6210                 6.7360                 3.9625

                     10                     11                     12
                      A                      A                      A
 Frequencies --    390.6745               411.5027               433.5861
 Red. masses --      1.9954                 2.7098                 2.9847
 Frc consts  --      0.1794                 0.2704                 0.3306
 IR Inten    --      6.4961                 2.5262                19.5631

                     13                     14                     15
                      A                      A                      A
 Frequencies --    442.3281               511.5686               521.8643
 Red. masses --      2.3877                 3.3945                 2.4098
 Frc consts  --      0.2752                 0.5234                 0.3867
 IR Inten    --      1.5834                11.1905                 5.3279

                     16                     17                     18
                      A                      A                      A
 Frequencies --    534.0889               576.7297               670.9906
 Red. masses --      2.5493                 3.0692                 2.5020
 Frc consts  --      0.4284                 0.6015                 0.6637
 IR Inten    --      7.2585                11.5977                 6.5519

                     19                     20                     21
                      A                      A                      A
 Frequencies --    751.1601               832.6015               841.7959
 Red. masses --      2.5666                 1.6159                 3.0967
 Frc consts  --      0.8532                 0.6600                 1.2929
 IR Inten    --      0.9116                 2.3623                12.7614

                     22                     23                     24
                      A                      A                      A
 Frequencies --    850.1453               870.0461               878.5918
 Red. masses --      3.3614                 1.9028                 1.7891
 Frc consts  --      1.4314                 0.8487                 0.8137
 IR Inten    --      1.0412                 8.5348                10.9996

                     25                     26                     27
                      A                      A                      A
 Frequencies --    901.8604               907.4104               911.0458
 Red. masses --      2.4107                 2.3814                 2.4269
 Frc consts  --      1.1553                 1.1553                 1.1868
 IR Inten    --     13.1424                 7.1381                94.4281

                     28                     29                     30
                      A                      A                      A
 Frequencies --    934.3559               948.4471              1015.1120
 Red. masses --      1.9058                 1.5970                 1.7764
 Frc consts  --      0.9803                 0.8464                 1.0785
 IR Inten    --      7.5718                17.6205                43.4129

                     31                     32                     33
                      A                      A                      A
 Frequencies --   1034.4632              1039.4184              1055.9277
 Red. masses --      2.2701                 2.1961                 1.9281
 Frc consts  --      1.4313                 1.3979                 1.2666
 IR Inten    --     10.7738                22.5771                31.7651

                     34                     35                     36
                      A                      A                      A
 Frequencies --   1063.1332              1069.0927              1084.8233
 Red. masses --      1.8534                 1.5729                 2.3805
 Frc consts  --      1.2342                 1.0592                 1.6506
 IR Inten    --     22.6986                25.8419               307.6427

                     37                     38                     39
                      A                      A                      A
 Frequencies --   1095.7105              1141.8368              1163.6512
 Red. masses --      1.7016                 2.7593                 2.3761
 Frc consts  --      1.2037                 2.1196                 1.8957
 IR Inten    --     39.9712               227.9480                29.1685

                     40                     41                     42
                      A                      A                      A
 Frequencies --   1178.9383              1191.9543              1214.8844
 Red. masses --      2.3868                 3.4684                 1.4953
 Frc consts  --      1.9546                 2.9034                 1.3003
 IR Inten    --     38.1454               185.1768                22.8228

                     43                     44                     45
                      A                      A                      A
 Frequencies --   1223.6580              1238.7598              1241.5791
 Red. masses --      1.3295                 1.7736                 1.8195
 Frc consts  --      1.1729                 1.6035                 1.6525
 IR Inten    --     27.8068                11.3713               168.0148

                     46                     47                     48
                      A                      A                      A
 Frequencies --   1284.8828              1299.3405              1315.7023
 Red. masses --      1.2162                 1.1418                 1.1512
 Frc consts  --      1.1830                 1.1357                 1.1741
 IR Inten    --     43.8500                 4.1592                16.7701

                     49                     50                     51
                      A                      A                      A
 Frequencies --   1337.3401              1355.4883              1360.7906
 Red. masses --      1.2272                 1.3296                 1.4021
 Frc consts  --      1.2931                 1.4394                 1.5297
 IR Inten    --     16.9802                19.0899                 5.3936

                     52                     53                     54
                      A                      A                      A
 Frequencies --   1367.4147              1383.1251              1388.4449
 Red. masses --      1.5652                 1.3940                 1.4663
 Frc consts  --      1.7243                 1.5712                 1.6655
 IR Inten    --      5.0521                23.0858                12.5830

                     55                     56                     57
                      A                      A                      A
 Frequencies --   1391.3681              1396.4047              1403.5422
 Red. masses --      1.5484                 1.5749                 1.3283
 Frc consts  --      1.7661                 1.8094                 1.5417
 IR Inten    --      6.0153                21.5401                 1.0670

                     58                     59                     60
                      A                      A                      A
 Frequencies --   1411.3346              1426.0155              1434.2606
 Red. masses --      1.4309                 1.3972                 1.4837
 Frc consts  --      1.6793                 1.6741                 1.7982
 IR Inten    --      7.7325                19.7876                 4.5289

                     61                     62                     63
                      A                      A                      A
 Frequencies --   1440.9820              1470.2789              1471.3210
 Red. masses --      1.3088                 1.1100                 1.0932
 Frc consts  --      1.6012                 1.4138                 1.3943
 IR Inten    --     24.5317                 5.2183                 6.2255

                     64                     65                     66
                      A                      A                      A
 Frequencies --   1473.1535              1483.5740              1489.0648
 Red. masses --      1.0881                 1.1131                 1.0900
 Frc consts  --      1.3913                 1.4434                 1.4240
 IR Inten    --     11.5463                20.1716                 4.2903

                     67                     68                     69
                      A                      A                      A
 Frequencies --   1490.8556              1501.6908              1505.0927
 Red. masses --      1.1178                 1.0957                 1.0984
 Frc consts  --      1.4639                 1.4557                 1.4661
 IR Inten    --     17.1141                 4.7582                 6.0448

                     70                     71                     72
                      A                      A                      A
 Frequencies --   3031.1856              3047.4147              3057.9114
 Red. masses --      1.0697                 1.0672                 1.0695
 Frc consts  --      5.7908                 5.8391                 5.8924
 IR Inten    --     75.5335                55.4061                44.0268

                     73                     74                     75
                      A                      A                      A
 Frequencies --   3065.5613              3072.2537              3072.5083
 Red. masses --      1.0635                 1.0652                 1.0633
 Frc consts  --      5.8885                 5.9239                 5.9140
 IR Inten    --     46.9591                 3.8069                52.5116

                     76                     77                     78
                      A                      A                      A
 Frequencies --   3077.1840              3080.6356              3091.7541
 Red. masses --      1.0614                 1.0635                 1.0838
 Frc consts  --      5.9217                 5.9465                 6.1037
 IR Inten    --     36.1526                12.8518                52.5914

                     79                     80                     81
                      A                      A                      A
 Frequencies --   3099.1976              3115.8123              3120.0262
 Red. masses --      1.0861                 1.0974                 1.1028
 Frc consts  --      6.1466                 6.2773                 6.3252
 IR Inten    --     65.4861                32.9843                60.8563

                     82                     83                     84
                      A                      A                      A
 Frequencies --   3121.0376              3125.4923              3130.7125
 Red. masses --      1.0980                 1.1030                 1.1044
 Frc consts  --      6.3017                 6.3485                 6.3774
 IR Inten    --     52.3825                55.3497                49.2902

                     85                     86                     87
                      A                      A                      A
 Frequencies --   3135.2056              3136.7161              3140.1444
 Red. masses --      1.0968                 1.0980                 1.0984
 Frc consts  --      6.3520                 6.3649                 6.3814
 IR Inten    --     45.5961                33.2220                41.9028

 - Thermochemistry -
 -------------------
 Temperature   298.150 Kelvin.  Pressure   1.00000 Atm.
 Atom     1 has atomic number  6 and mass  12.00000

 Molecular mass:   186.12559 amu.
 Principal axes and moments of inertia in atomic units:
                           1         2         3
     Eigenvalues --  1071.551233962.945524037.22771
           X            0.99984   0.01037  -0.01435
           Y           -0.00827   0.99024   0.13914
           Z            0.01565  -0.13900   0.99017
 This molecule is an asymmetric top.
 Rotational symmetry number  1.
 Warning -- assumption of classical behavior for rotation
           may cause significant error
 Rotational temperatures (Kelvin)      0.08083     0.02186     0.02145
 Rotational constants (GHZ):           1.68423     0.45540     0.44702
 Zero-point vibrational energy     737933.9 (Joules/Mol)
                                  176.37043 (Kcal/Mol)
 Warning -- explicit consideration of  17 degrees of freedom as
           vibrations may cause significant error
 Vibrational temperatures:     29.94    85.55   114.29   228.18   229.23
          (Kelvin)            350.29   372.12   401.98   486.09   562.09
                              592.06   623.83   636.41   736.03   750.85
                              768.43   829.79   965.41  1080.75  1197.93
                             1211.16  1223.17  1251.80  1264.10  1297.58
                             1305.56  1310.79  1344.33  1364.60  1460.52
                             1488.36  1495.49  1519.24  1529.61  1538.19
                             1560.82  1576.48  1642.85  1674.23  1696.23
                             1714.96  1747.95  1760.57  1782.30  1786.36
                             1848.66  1869.46  1893.00  1924.13  1950.25
                             1957.87  1967.40  1990.01  1997.66  2001.87
                             2009.11  2019.38  2030.60  2051.72  2063.58
                             2073.25  2115.40  2116.90  2119.54  2134.53
                             2142.43  2145.01  2160.60  2165.49  4361.20
                             4384.55  4399.65  4410.66  4420.29  4420.65
                             4427.38  4432.35  4448.34  4459.05  4482.96
                             4489.02  4490.48  4496.89  4504.40  4510.86
                             4513.03  4517.97

 Zero-point correction=                           0.281064 (Hartree/Particle)
 Thermal correction to Energy=                    0.292733
 Thermal correction to Enthalpy=                  0.293677
 Thermal correction to Gibbs Free Energy=         0.242183
 Sum of electronic and zero-point Energies=           -617.228069
 Sum of electronic and thermal Energies=              -617.216400
 Sum of electronic and thermal Enthalpies=            -617.215456
 Sum of electronic and thermal Free Energies=         -617.266950

                     E (Thermal)             CV                S
                      KCal/Mol        Cal/Mol-Kelvin    Cal/Mol-Kelvin
 Total                  183.693             46.410            108.378
 Electronic               0.000              0.000              0.000
 Translational            0.889              2.981             41.570
 Rotational               0.889              2.981             31.217
 Vibrational            181.915             40.448             35.591
 Vibration     1          0.593              1.986              6.556
 Vibration     2          0.597              1.974              4.475
 Vibration     3          0.600              1.963              3.905
 Vibration     4          0.621              1.893              2.567
 Vibration     5          0.621              1.892              2.558
 Vibration     6          0.659              1.774              1.777
 Vibration     7          0.667              1.748              1.671
 Vibration     8          0.680              1.712              1.537
 Vibration     9          0.718              1.600              1.222
 Vibration    10          0.758              1.490              0.998
 Vibration    11          0.775              1.445              0.921
 Vibration    12          0.794              1.397              0.847
 Vibration    13          0.802              1.378              0.819
 Vibration    14          0.867              1.224              0.630
 Vibration    15          0.877              1.202              0.606
 Vibration    16          0.889              1.175              0.578
 Vibration    17          0.933              1.082              0.491

 Optimization completed.
    -- Stationary point found.
 Normal termination of Gaussian 16 at Fri Mar  8 23:03:36 2019.
