 Gaussian 16, Revision B.01,
 Gaussian 16:  ES64L-G16RevB.01 20-Dec-2017

 ----------------------------------------------------------------------
 #M062X/6-311++G(2d,2p) opt=ModRedundant freq=noraman SCRF=(SMD,solvent
 =water)
 ----------------------------------------------------------------------

 --------------------------------
 4c1_a1_a4_4c1_PHI.inp_extract_13
 --------------------------------
 Symbolic Z-matrix:
 Charge =  0 Multiplicity = 1

 SCF Done:  E(RM062X) =  -617.495549837     A.U. after   13 cycles
 SCF Done:  E(RM062X) =  -617.495758891     A.U. after   11 cycles
 SCF Done:  E(RM062X) =  -617.497303393     A.U. after   11 cycles
 SCF Done:  E(RM062X) =  -617.497688390     A.U. after   10 cycles
 SCF Done:  E(RM062X) =  -617.497744473     A.U. after    9 cycles
 SCF Done:  E(RM062X) =  -617.497743856     A.U. after    9 cycles
 SCF Done:  E(RM062X) =  -617.497752837     A.U. after    8 cycles
 SCF Done:  E(RM062X) =  -617.497753651     A.U. after    7 cycles
 SCF Done:  E(RM062X) =  -617.497753753     A.U. after    7 cycles
 Optimization completed.
    -- Stationary point found.
 Normal termination of Gaussian 16 at Fri Mar  8 18:04:27 2019.

 ----------------------------------------------------------------------
 #N Geom=AllCheck Guess=TCheck SCRF=Check GenChk RM062X/6-311++G(2d,2p)
  Freq
 ----------------------------------------------------------------------

 Structure from the checkpoint file:  "4c1_a1_a4_4c1_PHI.inp_extract_13.chk"
 --------------------------------
 4c1_a1_a4_4c1_PHI.inp_extract_13
 --------------------------------
 Charge =  0 Multiplicity = 1

                         Standard orientation:
 ---------------------------------------------------------------------
 Center     Atomic      Atomic             Coordinates (Angstroms)
 Number     Number       Type             X           Y           Z
 ---------------------------------------------------------------------
      1          6           0        1.701688   -1.306984   -0.434948
      2          6           0       -1.164654   -0.274833    1.158050
      3          6           0        0.728396   -0.137393   -0.448765
      4          6           0       -3.296734    0.315352   -0.751579
      5          6           0        3.560389    0.080786   -0.026246
      6          8           0        2.816568   -1.056619    0.410103
      7          6           0       -2.524375   -0.984852   -0.950544
      8          6           0       -2.384199    1.345968   -0.119986
      9          6           0       -1.818112   -1.399335    0.346271
     10          6           0        2.708625    1.337016    0.011962
     11          8           0       -1.948123    0.902901    1.168753
     12          8           0        0.183022    0.036359    0.863547
     13          6           0        1.458776    1.141758   -0.844918
     14          1           0        2.047927   -1.496268   -1.457421
     15          1           0        1.217452   -2.203638   -0.052971
     16          1           0       -1.136151   -0.576476    2.203004
     17          1           0       -0.055753   -0.351572   -1.168546
     18          1           0       -4.150973    0.154651   -0.089681
     19          1           0       -3.675946    0.691785   -1.701688
     20          1           0        4.418305    0.157520    0.638455
     21          1           0        3.921776   -0.102005   -1.045087
     22          1           0       -1.813294   -0.850430   -1.765431
     23          1           0       -3.195324   -1.788380   -1.253501
     24          1           0       -2.896521    2.289879    0.052185
     25          1           0       -1.515837    1.541206   -0.757775
     26          1           0       -2.569963   -1.823368    1.013990
     27          1           0       -1.080834   -2.181351    0.166438
     28          1           0        3.294861    2.181634   -0.350377
     29          1           0        2.430070    1.547589    1.045943
     30          1           0        0.780680    1.990746   -0.758044
     31          1           0        1.748977    1.052457   -1.894489
 ---------------------------------------------------------------------

 SCF Done:  E(RM062X) =  -617.497753753     A.U. after    1 cycles

 The electronic state is 1-A.
 Alpha  occ. eigenvalues --  -19.62953 -19.62868 -19.62774 -10.63463 -10.58236
 Alpha  occ. eigenvalues --  -10.57366 -10.57348 -10.57283 -10.52922 -10.52562
 Alpha  occ. eigenvalues --  -10.52502 -10.52245 -10.52231  -1.19247  -1.16146
 Alpha  occ. eigenvalues --   -1.12950  -0.90005  -0.89628  -0.86580  -0.84311
 Alpha  occ. eigenvalues --   -0.74264  -0.73568  -0.73032  -0.70569  -0.65869
 Alpha  occ. eigenvalues --   -0.62161  -0.59102  -0.58133  -0.56669  -0.54735
 Alpha  occ. eigenvalues --   -0.54158  -0.52557  -0.51983  -0.50154  -0.49605
 Alpha  occ. eigenvalues --   -0.48858  -0.46244  -0.45522  -0.45421  -0.44566
 Alpha  occ. eigenvalues --   -0.42827  -0.41956  -0.41015  -0.39171  -0.39001
 Alpha  occ. eigenvalues --   -0.37864  -0.36504  -0.36282  -0.35211  -0.33126
 Alpha  occ. eigenvalues --   -0.31539
 Alpha virt. eigenvalues --    0.00292   0.01232   0.01369   0.01639   0.02753
 Alpha virt. eigenvalues --    0.03070   0.03168   0.03740   0.03987   0.05059
 Alpha virt. eigenvalues --    0.05338   0.05385   0.06177   0.06293   0.07818

 Mulliken charges:
               1
     1  C   -0.417375
     2  C   -0.019855
     3  C    0.034422
     4  C   -0.319140
     5  C   -0.210032
     6  O   -0.369500
     7  C   -0.300669
     8  C   -0.241669
     9  C   -0.334475
    10  C   -0.291275
    11  O   -0.345065
    12  O   -0.361609
    13  C   -0.408334
    14  H    0.199632
    15  H    0.234776
    16  H    0.265945
    17  H    0.270146
    18  H    0.176364
    19  H    0.169550
    20  H    0.210222
    21  H    0.152299
    22  H    0.182332
    23  H    0.195517
    24  H    0.232648
    25  H    0.138204
    26  H    0.232061
    27  H    0.173673
    28  H    0.191553
    29  H    0.176072
    30  H    0.157579
    31  H    0.226004
 Sum of Mulliken charges =  -0.00000

 Dipole moment (field-independent basis, Debye):
    X=             -1.5413    Y=             -0.5003    Z=             -5.4139  Tot=              5.6512
 Quadrupole moment (field-independent basis, Debye-Ang):
   XX=            -76.6208   YY=            -78.8583   ZZ=            -81.9287
   XY=              8.1109   XZ=             -1.6126   YZ=             -2.3009

  Exact polarizability: 181.657   1.074 171.816   0.233  -1.108 169.213
 Approx polarizability: 145.979   0.634 140.870  -0.487  -0.954 143.329

 ******    1 imaginary frequencies (negative Signs) ******

                      1                      2                      3
                      A                      A                      A
 Frequencies --    -30.8043                61.1683                97.6153
 Red. masses --      4.1167                 4.5318                 3.3722
 Frc consts  --      0.0023                 0.0100                 0.0189
 IR Inten    --      4.3141                 2.9923                 0.7634

                      4                      5                      6
                      A                      A                      A
 Frequencies --    126.4110               204.3588               207.4353
 Red. masses --      3.4295                 3.0726                 3.4343
 Frc consts  --      0.0323                 0.0756                 0.0871
 IR Inten    --      1.7635                 6.7382                 3.4746

                      7                      8                      9
                      A                      A                      A
 Frequencies --    251.2190               296.3821               344.0386
 Red. masses --      2.3562                 2.4436                 1.8438
 Frc consts  --      0.0876                 0.1265                 0.1286
 IR Inten    --      1.2244                 2.5831                 0.8392

                     10                     11                     12
                      A                      A                      A
 Frequencies --    375.5642               412.0796               432.5881
 Red. masses --      2.3406                 2.2901                 2.8880
 Frc consts  --      0.1945                 0.2291                 0.3184
 IR Inten    --      8.4535                11.4585                 4.4973

                     13                     14                     15
                      A                      A                      A
 Frequencies --    446.3988               481.8115               520.7521
 Red. masses --      3.1271                 3.5371                 2.8016
 Frc consts  --      0.3671                 0.4838                 0.4476
 IR Inten    --      8.0175                 5.5965                10.4825

                     16                     17                     18
                      A                      A                      A
 Frequencies --    525.4109               559.7547               682.8662
 Red. masses --      2.8375                 2.1795                 2.6090
 Frc consts  --      0.4615                 0.4023                 0.7168
 IR Inten    --     11.2891                 9.6954                12.7573

                     19                     20                     21
                      A                      A                      A
 Frequencies --    758.3953               794.7905               835.0648
 Red. masses --      2.7544                 2.3353                 2.0464
 Frc consts  --      0.9334                 0.8691                 0.8408
 IR Inten    --      8.4669                 3.2427                 8.7468

                     22                     23                     24
                      A                      A                      A
 Frequencies --    859.1358               862.1602               876.5820
 Red. masses --      3.1008                 2.3075                 1.6703
 Frc consts  --      1.3485                 1.0106                 0.7562
 IR Inten    --      9.6812                20.1406                13.4913

                     25                     26                     27
                      A                      A                      A
 Frequencies --    903.0514               905.0228               907.5673
 Red. masses --      2.4226                 2.5195                 2.0500
 Frc consts  --      1.1640                 1.2159                 0.9948
 IR Inten    --     53.2606                32.2095                36.2809

                     28                     29                     30
                      A                      A                      A
 Frequencies --    937.3839               944.3188               992.2409
 Red. masses --      1.8888                 1.8264                 1.8824
 Frc consts  --      0.9778                 0.9596                 1.0919
 IR Inten    --      1.7038                13.3149                11.7107

                     31                     32                     33
                      A                      A                      A
 Frequencies --   1024.4587              1045.9443              1057.5389
 Red. masses --      2.0773                 2.5886                 1.8471
 Frc consts  --      1.2845                 1.6685                 1.2171
 IR Inten    --     15.9195                 7.8961                26.4382

                     34                     35                     36
                      A                      A                      A
 Frequencies --   1067.3980              1083.4484              1091.7814
 Red. masses --      1.9950                 1.4544                 1.7192
 Frc consts  --      1.3392                 1.0059                 1.2074
 IR Inten    --     36.1594                57.3598               136.2757

                     37                     38                     39
                      A                      A                      A
 Frequencies --   1102.1078              1143.9264              1161.2595
 Red. masses --      1.8727                 2.7615                 2.2094
 Frc consts  --      1.3402                 2.1291                 1.7554
 IR Inten    --    146.1376               131.5631                20.1046

                     40                     41                     42
                      A                      A                      A
 Frequencies --   1174.2111              1201.4574              1225.0764
 Red. masses --      2.7166                 1.9863                 1.3358
 Frc consts  --      2.2068                 1.6893                 1.1812
 IR Inten    --    176.7076                89.6937                33.3366

                     43                     44                     45
                      A                      A                      A
 Frequencies --   1227.0687              1239.9455              1255.4418
 Red. masses --      1.8603                 1.8383                 2.0381
 Frc consts  --      1.6503                 1.6652                 1.8926
 IR Inten    --    176.3381                37.9794               124.7348

                     46                     47                     48
                      A                      A                      A
 Frequencies --   1297.3223              1303.9834              1321.6272
 Red. masses --      1.1702                 1.2641                 1.2123
 Frc consts  --      1.1604                 1.2664                 1.2476
 IR Inten    --     63.2720                57.4040                22.8697

                     49                     50                     51
                      A                      A                      A
 Frequencies --   1335.9660              1356.0338              1362.7037
 Red. masses --      1.2611                 1.6009                 1.3302
 Frc consts  --      1.3261                 1.7344                 1.4554
 IR Inten    --     17.8381                 1.5033                 5.2153

                     52                     53                     54
                      A                      A                      A
 Frequencies --   1368.0816              1381.3818              1386.4434
 Red. masses --      1.3607                 1.4600                 1.4439
 Frc consts  --      1.5005                 1.6414                 1.6353
 IR Inten    --      2.6306                 7.9174                 4.4533

                     55                     56                     57
                      A                      A                      A
 Frequencies --   1391.5486              1404.9322              1407.6193
 Red. masses --      1.6451                 1.3221                 1.3526
 Frc consts  --      1.8769                 1.5375                 1.5790
 IR Inten    --     16.4944                 5.5366                 3.9953

                     58                     59                     60
                      A                      A                      A
 Frequencies --   1414.2295              1428.5954              1434.2461
 Red. masses --      1.3575                 1.3777                 1.3832
 Frc consts  --      1.5997                 1.6566                 1.6764
 IR Inten    --     23.8744                27.3876                13.3903

                     61                     62                     63
                      A                      A                      A
 Frequencies --   1451.1767              1468.3966              1472.9933
 Red. masses --      1.2185                 1.0911                 1.1038
 Frc consts  --      1.5118                 1.3861                 1.4111
 IR Inten    --      9.6919                 6.5808                 3.8823

                     64                     65                     66
                      A                      A                      A
 Frequencies --   1478.4534              1479.0550              1488.7197
 Red. masses --      1.1216                 1.0891                 1.0899
 Frc consts  --      1.4444                 1.4037                 1.4232
 IR Inten    --     16.6854                 9.3389                 6.6686

                     67                     68                     69
                      A                      A                      A
 Frequencies --   1503.4233              1507.9646              1516.2048
 Red. masses --      1.0989                 1.1004                 1.0927
 Frc consts  --      1.4634                 1.4743                 1.4800
 IR Inten    --      6.6564                16.2008                 4.2669

                     70                     71                     72
                      A                      A                      A
 Frequencies --   3031.0971              3039.5757              3055.7012
 Red. masses --      1.0698                 1.0685                 1.0686
 Frc consts  --      5.7911                 5.8163                 5.8787
 IR Inten    --     78.1953                64.0270                39.1446

                     73                     74                     75
                      A                      A                      A
 Frequencies --   3067.0988              3070.1909              3078.5682
 Red. masses --      1.0630                 1.0635                 1.0612
 Frc consts  --      5.8919                 5.9062                 5.9260
 IR Inten    --     49.2305                40.0251                31.2380

                     76                     77                     78
                      A                      A                      A
 Frequencies --   3082.0237              3084.2188              3115.8517
 Red. masses --      1.0673                 1.0614                 1.0988
 Frc consts  --      5.9729                 5.9487                 6.2854
 IR Inten    --     11.2446                30.5059                42.2401

                     79                     80                     81
                      A                      A                      A
 Frequencies --   3118.8464              3123.3707              3123.8933
 Red. masses --      1.0999                 1.1017                 1.0881
 Frc consts  --      6.3039                 6.3326                 6.2562
 IR Inten    --     37.4811                67.8013                33.0129

                     82                     83                     84
                      A                      A                      A
 Frequencies --   3125.3016              3133.4003              3136.7274
 Red. masses --      1.1038                 1.1009                 1.0964
 Frc consts  --      6.3519                 6.3682                 6.3557
 IR Inten    --     54.6462                76.3613                45.4566

                     85                     86                     87
                      A                      A                      A
 Frequencies --   3140.7707              3141.5177              3176.9634
 Red. masses --      1.0978                 1.0960                 1.0827
 Frc consts  --      6.3801                 6.3731                 6.4382
 IR Inten    --     41.2492                23.0490                22.9184

 - Thermochemistry -
 -------------------
 Temperature   298.150 Kelvin.  Pressure   1.00000 Atm.
 Atom     1 has atomic number  6 and mass  12.00000

 Molecular mass:   186.12559 amu.
 Principal axes and moments of inertia in atomic units:
                           1         2         3
     Eigenvalues --  1061.613253790.705464071.10430
           X            0.99988   0.01525   0.00306
           Y           -0.01518   0.99966  -0.02120
           Z           -0.00338   0.02115   0.99977
 This molecule is an asymmetric top.
 Rotational symmetry number  1.
 Warning -- assumption of classical behavior for rotation
           may cause significant error
 Rotational temperatures (Kelvin)      0.08159     0.02285     0.02128
 Rotational constants (GHZ):           1.70000     0.47610     0.44331
    1 imaginary frequencies ignored.
 Zero-point vibrational energy     738747.0 (Joules/Mol)
                                  176.56477 (Kcal/Mol)
 Warning -- explicit consideration of  16 degrees of freedom as
           vibrations may cause significant error
 Vibrational temperatures:     88.01   140.45   181.88   294.03   298.45
          (Kelvin)            361.45   426.43   494.99   540.35   592.89
                              622.40   642.27   693.22   749.25   755.95
                              805.36   982.49  1091.16  1143.53  1201.47
                             1236.10  1240.46  1261.21  1299.29  1302.13
                             1305.79  1348.69  1358.66  1427.61  1473.97
                             1504.88  1521.56  1535.75  1558.84  1570.83
                             1585.69  1645.86  1670.79  1689.43  1728.63
                             1762.61  1765.48  1784.01  1806.30  1866.56
                             1876.14  1901.53  1922.16  1951.03  1960.63
                             1968.36  1987.50  1994.78  2002.13  2021.38
                             2025.25  2034.76  2055.43  2063.56  2087.92
                             2112.70  2119.31  2127.16  2128.03  2141.94
                             2163.09  2169.62  2181.48  4361.07  4373.27
                             4396.47  4412.87  4417.32  4429.37  4434.34
                             4437.50  4483.02  4487.32  4493.83  4494.59
                             4496.61  4508.26  4513.05  4518.87  4519.94
                             4570.94

 Zero-point correction=                           0.281374 (Hartree/Particle)
 Thermal correction to Energy=                    0.292177
 Thermal correction to Enthalpy=                  0.293121
 Thermal correction to Gibbs Free Energy=         0.244810
 Sum of electronic and zero-point Energies=           -617.216380
 Sum of electronic and thermal Energies=              -617.205577
 Sum of electronic and thermal Enthalpies=            -617.204632
 Sum of electronic and thermal Free Energies=         -617.252944

                     E (Thermal)             CV                S
                      KCal/Mol        Cal/Mol-Kelvin    Cal/Mol-Kelvin
 Total                  183.344             44.554            101.680
 Electronic               0.000              0.000              0.000
 Translational            0.889              2.981             41.570
 Rotational               0.889              2.981             31.172
 Vibrational            181.566             38.592             28.939
 Vibration     1          0.597              1.973              4.419
 Vibration     2          0.603              1.951              3.501
 Vibration     3          0.611              1.927              3.000
 Vibration     4          0.640              1.834              2.093
 Vibration     5          0.641              1.829              2.066
 Vibration     6          0.663              1.761              1.722
 Vibration     7          0.690              1.680              1.437
 Vibration     8          0.723              1.587              1.193
 Vibration     9          0.746              1.522              1.057
 Vibration    10          0.776              1.444              0.919
 Vibration    11          0.793              1.399              0.850
 Vibration    12          0.806              1.369              0.807
 Vibration    13          0.838              1.290              0.705
 Vibration    14          0.876              1.204              0.608
 Vibration    15          0.880              1.194              0.598
 Vibration    16          0.915              1.118              0.524

 Optimization completed.
    -- Stationary point found.
 Normal termination of Gaussian 16 at Fri Mar  8 19:11:42 2019.
