 Gaussian 16, Revision B.01,
 Gaussian 16:  ES64L-G16RevB.01 20-Dec-2017

 ----------------------------------------------------------------------
 #M062X/6-311++G(2d,2p) opt=ModRedundant freq=noraman SCRF=(SMD,solvent
 =water)
 ----------------------------------------------------------------------

 -------------------------------
 4c1_a1_a4_4c1_PHI.inp_extract_4
 -------------------------------
 Symbolic Z-matrix:
 Charge =  0 Multiplicity = 1

 SCF Done:  E(RM062X) =  -617.504048616     A.U. after   12 cycles
 SCF Done:  E(RM062X) =  -617.506122581     A.U. after   10 cycles
 SCF Done:  E(RM062X) =  -617.506320582     A.U. after   10 cycles
 SCF Done:  E(RM062X) =  -617.506349701     A.U. after    9 cycles
 SCF Done:  E(RM062X) =  -617.506353803     A.U. after    8 cycles
 SCF Done:  E(RM062X) =  -617.506353775     A.U. after    8 cycles
 SCF Done:  E(RM062X) =  -617.506354026     A.U. after    7 cycles
 Optimization completed.
    -- Stationary point found.
 Normal termination of Gaussian 16 at Fri Mar  8 14:40:20 2019.

 ----------------------------------------------------------------------
 #N Geom=AllCheck Guess=TCheck SCRF=Check GenChk RM062X/6-311++G(2d,2p)
  Freq
 ----------------------------------------------------------------------

 Structure from the checkpoint file:  "4c1_a1_a4_4c1_PHI.inp_extract_4.chk"
 -------------------------------
 4c1_a1_a4_4c1_PHI.inp_extract_4
 -------------------------------
 Charge =  0 Multiplicity = 1

                         Standard orientation:
 ---------------------------------------------------------------------
 Center     Atomic      Atomic             Coordinates (Angstroms)
 Number     Number       Type             X           Y           Z
 ---------------------------------------------------------------------
      1          6           0       -2.132819   -1.432052   -0.303516
      2          6           0        1.111636   -0.234366    0.936379
      3          6           0       -1.205477   -0.827683    0.733754
      4          6           0        3.265927    0.396999   -0.873093
      5          6           0       -3.107364    0.648558   -0.824409
      6          8           0       -2.448197   -0.508866   -1.336872
      7          6           0        2.134045    1.401568   -0.672771
      8          6           0        2.758122   -1.007264   -0.606440
      9          6           0        1.534307    1.210715    0.717857
     10          6           0       -2.223256    1.389915    0.163532
     11          8           0        2.185271   -1.122459    0.703669
     12          8           0        0.040820   -0.581440    0.078604
     13          6           0       -1.817474    0.451557    1.298078
     14          1           0       -3.051566   -1.760867    0.193728
     15          1           0       -1.660650   -2.288223   -0.781350
     16          1           0        0.819081   -0.406285    1.972820
     17          1           0       -1.050484   -1.561629    1.529893
     18          1           0        4.083307    0.619413   -0.182874
     19          1           0        3.663570    0.442968   -1.887339
     20          1           0       -3.351487    1.266451   -1.685927
     21          1           0       -4.040481    0.339491   -0.338939
     22          1           0        1.363836    1.241329   -1.431380
     23          1           0        2.495431    2.422709   -0.788594
     24          1           0        3.563212   -1.737959   -0.635506
     25          1           0        2.010798   -1.289923   -1.352090
     26          1           0        2.279141    1.455560    1.478154
     27          1           0        0.671383    1.857165    0.874476
     28          1           0       -2.761569    2.254810    0.551384
     29          1           0       -1.336763    1.756850   -0.358431
     30          1           0       -1.124255    0.933545    1.987855
     31          1           0       -2.701541    0.169031    1.874692
 ---------------------------------------------------------------------

 SCF Done:  E(RM062X) =  -617.506354026     A.U. after    1 cycles

 The electronic state is 1-A.
 Alpha  occ. eigenvalues --  -19.63054 -19.62921 -19.62852 -10.63167 -10.58477
 Alpha  occ. eigenvalues --  -10.57579 -10.57329 -10.57270 -10.52547 -10.52350
 Alpha  occ. eigenvalues --  -10.52318 -10.52299 -10.52184  -1.19640  -1.16228
 Alpha  occ. eigenvalues --   -1.13063  -0.89963  -0.89309  -0.86899  -0.84202
 Alpha  occ. eigenvalues --   -0.74209  -0.72769  -0.72481  -0.71420  -0.66085
 Alpha  occ. eigenvalues --   -0.61931  -0.59488  -0.57511  -0.56769  -0.55232
 Alpha  occ. eigenvalues --   -0.54362  -0.52421  -0.51833  -0.50636  -0.49235
 Alpha  occ. eigenvalues --   -0.47676  -0.46454  -0.45911  -0.44851  -0.44670
 Alpha  occ. eigenvalues --   -0.42960  -0.42439  -0.41409  -0.39668  -0.38904
 Alpha  occ. eigenvalues --   -0.37599  -0.37315  -0.36424  -0.33769  -0.33490
 Alpha  occ. eigenvalues --   -0.31812
 Alpha virt. eigenvalues --    0.00346   0.01294   0.01394   0.01553   0.02782
 Alpha virt. eigenvalues --    0.03047   0.03212   0.03707   0.03787   0.05283
 Alpha virt. eigenvalues --    0.05289   0.05435   0.05988   0.06159   0.07621

 Mulliken charges:
               1
     1  C   -0.453453
     2  C   -0.213315
     3  C    0.196704
     4  C   -0.395204
     5  C   -0.240841
     6  O   -0.361728
     7  C   -0.306739
     8  C   -0.197446
     9  C   -0.189625
    10  C   -0.278301
    11  O   -0.338182
    12  O   -0.373632
    13  C   -0.413257
    14  H    0.194353
    15  H    0.212781
    16  H    0.294337
    17  H    0.255660
    18  H    0.171762
    19  H    0.175417
    20  H    0.205381
    21  H    0.164283
    22  H    0.181893
    23  H    0.187817
    24  H    0.218826
    25  H    0.169629
    26  H    0.210143
    27  H    0.172505
    28  H    0.187848
    29  H    0.151630
    30  H    0.176011
    31  H    0.234740
 Sum of Mulliken charges =  -0.00000

 Dipole moment (field-independent basis, Debye):
    X=             -1.3252    Y=              2.4366    Z=              2.5616  Tot=              3.7756
 Quadrupole moment (field-independent basis, Debye-Ang):
   XX=            -72.9555   YY=            -78.2192   ZZ=            -81.4139
   XY=              1.9629   XZ=            -10.1254   YZ=             -0.0452

  Exact polarizability: 180.453  -1.754 172.308  -2.821  -0.517 170.188
 Approx polarizability: 145.814  -1.514 141.056  -1.745  -0.599 143.003

                      1                      2                      3
                      A                      A                      A
 Frequencies --     39.7908                71.9639                89.1498
 Red. masses --      3.6918                 3.8143                 3.7264
 Frc consts  --      0.0034                 0.0116                 0.0174
 IR Inten    --      3.3758                 3.1222                 3.3066

                      4                      5                      6
                      A                      A                      A
 Frequencies --    150.4450               183.5776               233.1629
 Red. masses --      3.4801                 3.3707                 2.8739
 Frc consts  --      0.0464                 0.0669                 0.0921
 IR Inten    --      0.7246                 1.7506                12.5654

                      7                      8                      9
                      A                      A                      A
 Frequencies --    266.7923               286.4456               336.0927
 Red. masses --      3.1510                 2.2880                 2.1130
 Frc consts  --      0.1321                 0.1106                 0.1406
 IR Inten    --      0.7256                 1.4596                 0.3787

                     10                     11                     12
                      A                      A                      A
 Frequencies --    384.5763               425.1745               434.3977
 Red. masses --      2.0198                 2.4830                 2.8327
 Frc consts  --      0.1760                 0.2645                 0.3149
 IR Inten    --      1.9150                30.6000                 2.5967

                     13                     14                     15
                      A                      A                      A
 Frequencies --    444.2919               503.5643               526.4759
 Red. masses --      2.7117                 4.0281                 2.4081
 Frc consts  --      0.3154                 0.6018                 0.3933
 IR Inten    --      2.8978                 0.7847                 4.4652

                     16                     17                     18
                      A                      A                      A
 Frequencies --    532.0562               557.5262               667.8668
 Red. masses --      2.4568                 2.8205                 2.3963
 Frc consts  --      0.4098                 0.5166                 0.6298
 IR Inten    --      1.4723                29.2679                 5.8072

                     19                     20                     21
                      A                      A                      A
 Frequencies --    742.6475               834.2036               842.9474
 Red. masses --      2.4647                 1.8959                 2.4688
 Frc consts  --      0.8009                 0.7773                 1.0336
 IR Inten    --      1.9434                 3.0046                 8.4358

                     22                     23                     24
                      A                      A                      A
 Frequencies --    853.5827               876.2445               883.8055
 Red. masses --      3.2320                 2.0436                 1.7282
 Frc consts  --      1.3874                 0.9245                 0.7953
 IR Inten    --      0.3086                 4.2261                 9.4212

                     25                     26                     27
                      A                      A                      A
 Frequencies --    899.0305               908.5366               912.5701
 Red. masses --      2.5016                 1.9860                 2.5340
 Frc consts  --      1.1913                 0.9659                 1.2433
 IR Inten    --     14.0324                42.2055                75.4991

                     28                     29                     30
                      A                      A                      A
 Frequencies --    941.0287               948.4166              1015.7948
 Red. masses --      1.8613                 1.6523                 1.8017
 Frc consts  --      0.9711                 0.8757                 1.0953
 IR Inten    --     13.7935                 8.0280                38.7161

                     31                     32                     33
                      A                      A                      A
 Frequencies --   1032.4488              1036.5432              1056.9848
 Red. masses --      2.0896                 2.2937                 1.8231
 Frc consts  --      1.3123                 1.4520                 1.2001
 IR Inten    --     27.6369                47.8424                14.3992

                     34                     35                     36
                      A                      A                      A
 Frequencies --   1064.2856              1073.6385              1087.0509
 Red. masses --      1.9418                 1.7326                 1.9684
 Frc consts  --      1.2959                 1.1767                 1.3704
 IR Inten    --     14.4675                21.4488               237.8782

                     37                     38                     39
                      A                      A                      A
 Frequencies --   1102.3045              1144.2604              1163.0410
 Red. masses --      1.7758                 2.8323                 2.4792
 Frc consts  --      1.2713                 2.1850                 1.9759
 IR Inten    --    101.0845               218.1000               124.3591

                     40                     41                     42
                      A                      A                      A
 Frequencies --   1179.8234              1190.9038              1208.7611
 Red. masses --      2.5843                 2.1488                 1.4262
 Frc consts  --      2.1195                 1.7956                 1.2278
 IR Inten    --     22.9076                69.8010                12.0883

                     43                     44                     45
                      A                      A                      A
 Frequencies --   1224.3996              1239.4894              1264.9180
 Red. masses --      1.3489                 1.7507                 2.1675
 Frc consts  --      1.1914                 1.5847                 2.0433
 IR Inten    --     42.6482                44.8735               179.1834

                     46                     47                     48
                      A                      A                      A
 Frequencies --   1283.3209              1297.9060              1317.3923
 Red. masses --      1.3024                 1.1225                 1.1702
 Frc consts  --      1.2638                 1.1141                 1.1965
 IR Inten    --     86.2169                 6.4826                24.3752

                     49                     50                     51
                      A                      A                      A
 Frequencies --   1337.0175              1353.1908              1362.8031
 Red. masses --      1.2185                 1.3428                 1.3651
 Frc consts  --      1.2834                 1.4487                 1.4938
 IR Inten    --     16.5492                10.9393                14.8004

                     52                     53                     54
                      A                      A                      A
 Frequencies --   1367.7908              1381.5720              1386.2182
 Red. masses --      1.5331                 1.5123                 1.4747
 Frc consts  --      1.6898                 1.7008                 1.6696
 IR Inten    --     13.3325                 7.6906                12.7498

                     55                     56                     57
                      A                      A                      A
 Frequencies --   1388.1986              1398.1656              1400.5075
 Red. masses --      1.6312                 1.4873                 1.3716
 Frc consts  --      1.8521                 1.7130                 1.5850
 IR Inten    --     11.9047                26.9520                 2.7743

                     58                     59                     60
                      A                      A                      A
 Frequencies --   1410.1747              1423.1258              1432.7460
 Red. masses --      1.4178                 1.3844                 1.4168
 Frc consts  --      1.6612                 1.6520                 1.7135
 IR Inten    --     10.1980                29.2785                 7.0241

                     61                     62                     63
                      A                      A                      A
 Frequencies --   1455.6426              1470.0526              1472.6299
 Red. masses --      1.3186                 1.0963                 1.1083
 Frc consts  --      1.6462                 1.3958                 1.4161
 IR Inten    --     26.7997                 7.5867                 2.2183

                     64                     65                     66
                      A                      A                      A
 Frequencies --   1475.6333              1488.1145              1491.2303
 Red. masses --      1.0923                 1.0962                 1.1189
 Frc consts  --      1.4013                 1.4302                 1.4660
 IR Inten    --     10.6479                14.7951                19.3711

                     67                     68                     69
                      A                      A                      A
 Frequencies --   1492.8624              1505.5905              1506.0768
 Red. masses --      1.1003                 1.0979                 1.1013
 Frc consts  --      1.4448                 1.4663                 1.4719
 IR Inten    --     11.6966                10.1430                 3.1468

                     70                     71                     72
                      A                      A                      A
 Frequencies --   3030.1912              3046.1924              3059.5693
 Red. masses --      1.0700                 1.0683                 1.0804
 Frc consts  --      5.7886                 5.8405                 5.9590
 IR Inten    --     75.1485                35.7198                63.3122

                     73                     74                     75
                      A                      A                      A
 Frequencies --   3061.1206              3065.2834              3069.1904
 Red. masses --      1.0695                 1.0658                 1.0621
 Frc consts  --      5.9044                 5.9002                 5.8948
 IR Inten    --     20.9977                34.3291                63.5987

                     76                     77                     78
                      A                      A                      A
 Frequencies --   3072.4249              3075.0364              3075.4740
 Red. masses --      1.0661                 1.0625                 1.0648
 Frc consts  --      5.9295                 5.9196                 5.9339
 IR Inten    --      4.3912                40.9566                74.7442

                     79                     80                     81
                      A                      A                      A
 Frequencies --   3101.7001              3116.9261              3117.3552
 Red. masses --      1.0877                 1.0996                 1.0973
 Frc consts  --      6.1651                 6.2939                 6.2825
 IR Inten    --     61.2253                32.8455                37.0857

                     82                     83                     84
                      A                      A                      A
 Frequencies --   3120.4082              3123.2184              3131.2165
 Red. masses --      1.1020                 1.1025                 1.1004
 Frc consts  --      6.3218                 6.3362                 6.3565
 IR Inten    --     81.6252                67.0318                21.9728

                     85                     86                     87
                      A                      A                      A
 Frequencies --   3136.8682              3139.6152              3142.3190
 Red. masses --      1.0959                 1.0978                 1.0994
 Frc consts  --      6.3533                 6.3757                 6.3963
 IR Inten    --     48.1377                30.5103                41.3537

 - Thermochemistry -
 -------------------
 Temperature   298.150 Kelvin.  Pressure   1.00000 Atm.
 Atom     1 has atomic number  6 and mass  12.00000

 Molecular mass:   186.12559 amu.
 Principal axes and moments of inertia in atomic units:
                           1         2         3
     Eigenvalues --  1167.555233696.006873879.83280
           X            0.99985   0.00369  -0.01719
           Y           -0.00344   0.99988   0.01480
           Z            0.01724  -0.01473   0.99974
 This molecule is an asymmetric top.
 Rotational symmetry number  1.
 Warning -- assumption of classical behavior for rotation
           may cause significant error
 Rotational temperatures (Kelvin)      0.07418     0.02343     0.02232
 Rotational constants (GHZ):           1.54574     0.48829     0.46516
 Zero-point vibrational energy     738353.6 (Joules/Mol)
                                  176.47075 (Kcal/Mol)
 Warning -- explicit consideration of  17 degrees of freedom as
           vibrations may cause significant error
 Vibrational temperatures:     57.25   103.54   128.27   216.46   264.13
          (Kelvin)            335.47   383.85   412.13   483.56   553.32
                              611.73   625.00   639.24   724.52   757.48
                              765.51   802.16   960.91  1068.50  1200.23
                             1212.81  1228.12  1260.72  1271.60  1293.50
                             1307.18  1312.98  1353.93  1364.56  1461.50
                             1485.46  1491.35  1520.77  1531.27  1544.73
                             1564.02  1585.97  1646.34  1673.36  1697.50
                             1713.44  1739.14  1761.64  1783.35  1819.93
                             1846.41  1867.40  1895.43  1923.67  1946.94
                             1960.77  1967.95  1987.77  1994.46  1997.31
                             2011.65  2015.02  2028.93  2047.56  2061.40
                             2094.35  2115.08  2118.79  2123.11  2141.06
                             2145.55  2147.90  2166.21  2166.91  4359.77
                             4382.79  4402.04  4404.27  4410.26  4415.88
                             4420.53  4424.29  4424.92  4462.65  4484.56
                             4485.18  4489.57  4493.61  4505.12  4513.25
                             4517.21  4521.10

 Zero-point correction=                           0.281224 (Hartree/Particle)
 Thermal correction to Energy=                    0.292780
 Thermal correction to Enthalpy=                  0.293725
 Thermal correction to Gibbs Free Energy=         0.243218
 Sum of electronic and zero-point Energies=           -617.225130
 Sum of electronic and thermal Energies=              -617.213574
 Sum of electronic and thermal Enthalpies=            -617.212629
 Sum of electronic and thermal Free Energies=         -617.263136

                     E (Thermal)             CV                S
                      KCal/Mol        Cal/Mol-Kelvin    Cal/Mol-Kelvin
 Total                  183.723             46.359            106.300
 Electronic               0.000              0.000              0.000
 Translational            0.889              2.981             41.570
 Rotational               0.889              2.981             31.194
 Vibrational            181.945             40.398             33.536
 Vibration     1          0.594              1.981              5.269
 Vibration     2          0.598              1.967              4.099
 Vibration     3          0.602              1.957              3.679
 Vibration     4          0.618              1.902              2.667
 Vibration     5          0.631              1.862              2.292
 Vibration     6          0.654              1.790              1.854
 Vibration     7          0.672              1.734              1.617
 Vibration     8          0.684              1.699              1.495
 Vibration     9          0.717              1.603              1.231
 Vibration    10          0.754              1.503              1.021
 Vibration    11          0.787              1.415              0.875
 Vibration    12          0.795              1.395              0.844
 Vibration    13          0.804              1.373              0.813
 Vibration    14          0.859              1.242              0.649
 Vibration    15          0.881              1.191              0.595
 Vibration    16          0.887              1.179              0.583
 Vibration    17          0.913              1.123              0.529

 Optimization completed.
    -- Stationary point found.
 Normal termination of Gaussian 16 at Fri Mar  8 15:47:19 2019.
