 Gaussian 16, Revision B.01,
 Gaussian 16:  ES64L-G16RevB.01 20-Dec-2017

 ----------------------------------------------------------------------
 #M062X/6-311++G(2d,2p) opt=ModRedundant freq=noraman SCRF=(SMD,solvent
 =water)
 ----------------------------------------------------------------------

 --------------------------------
 4c1_a1_a4_4c1_PHI.inp_extract_21
 --------------------------------
 Symbolic Z-matrix:
 Charge =  0 Multiplicity = 1

 SCF Done:  E(RM062X) =  -617.499901569     A.U. after   12 cycles
 SCF Done:  E(RM062X) =  -617.501539255     A.U. after   10 cycles
 SCF Done:  E(RM062X) =  -617.501690017     A.U. after   10 cycles
 SCF Done:  E(RM062X) =  -617.502039156     A.U. after   10 cycles
 SCF Done:  E(RM062X) =  -617.502090418     A.U. after    9 cycles
 SCF Done:  E(RM062X) =  -617.502093563     A.U. after    8 cycles
 SCF Done:  E(RM062X) =  -617.502093323     A.U. after    7 cycles
 SCF Done:  E(RM062X) =  -617.502093140     A.U. after    6 cycles
 SCF Done:  E(RM062X) =  -617.502093511     A.U. after    7 cycles
 SCF Done:  E(RM062X) =  -617.502093150     A.U. after    7 cycles
 Optimization completed.
    -- Stationary point found.
 Normal termination of Gaussian 16 at Fri Mar  8 21:14:19 2019.

 ----------------------------------------------------------------------
 #N Geom=AllCheck Guess=TCheck SCRF=Check GenChk RM062X/6-311++G(2d,2p)
  Freq
 ----------------------------------------------------------------------

 Structure from the checkpoint file:  "4c1_a1_a4_4c1_PHI.inp_extract_21.chk"
 --------------------------------
 4c1_a1_a4_4c1_PHI.inp_extract_21
 --------------------------------
 Charge =  0 Multiplicity = 1

                         Standard orientation:
 ---------------------------------------------------------------------
 Center     Atomic      Atomic             Coordinates (Angstroms)
 Number     Number       Type             X           Y           Z
 ---------------------------------------------------------------------
      1          6           0        1.768847   -0.854285   -1.222971
      2          6           0       -1.034436    0.242111    0.930673
      3          6           0        0.845777    0.200668   -0.642383
      4          6           0       -3.471482    0.003621   -0.589336
      5          6           0        3.551684   -0.263468    0.197728
      6          8           0        2.717139   -1.321265   -0.273227
      7          6           0       -2.912486   -1.229624    0.111677
      8          6           0       -2.323452    0.904646   -0.995928
      9          6           0       -2.095915   -0.772136    1.314043
     10          6           0        2.735090    0.813097    0.891149
     11          8           0       -1.503677    1.292511    0.120679
     12          8           0        0.077091   -0.452709    0.368225
     13          6           0        1.667047    1.350341   -0.059537
     14          1           0        2.289967   -0.427209   -2.086562
     15          1           0        1.196350   -1.721668   -1.546907
     16          1           0       -0.674113    0.754862    1.826153
     17          1           0        0.205539    0.563263   -1.443201
     18          1           0       -4.143316    0.542518    0.082893
     19          1           0       -4.034811   -0.263791   -1.483591
     20          1           0        4.270154   -0.720846    0.874782
     21          1           0        4.095113    0.164042   -0.653193
     22          1           0       -2.280401   -1.788551   -0.582998
     23          1           0       -3.711352   -1.895817    0.434627
     24          1           0       -2.673472    1.840000   -1.426757
     25          1           0       -1.712020    0.390754   -1.741818
     26          1           0       -2.756676   -0.292070    2.038435
     27          1           0       -1.601691   -1.602864    1.816452
     28          1           0        3.399047    1.613546    1.218120
     29          1           0        2.267401    0.387917    1.781420
     30          1           0        1.011128    2.059603    0.444635
     31          1           0        2.144683    1.878190   -0.888592
 ---------------------------------------------------------------------

 SCF Done:  E(RM062X) =  -617.502093150     A.U. after    1 cycles

 The electronic state is 1-A.
 Alpha  occ. eigenvalues --  -19.63611 -19.62843 -19.62648 -10.63282 -10.58103
 Alpha  occ. eigenvalues --  -10.57534 -10.57489 -10.57265 -10.52520 -10.52415
 Alpha  occ. eigenvalues --  -10.52305 -10.52294 -10.52207  -1.19504  -1.16159
 Alpha  occ. eigenvalues --   -1.12863  -0.90557  -0.89210  -0.87032  -0.84001
 Alpha  occ. eigenvalues --   -0.74236  -0.73624  -0.72476  -0.70740  -0.65513
 Alpha  occ. eigenvalues --   -0.62241  -0.59143  -0.57972  -0.57054  -0.55293
 Alpha  occ. eigenvalues --   -0.53218  -0.52695  -0.51746  -0.50657  -0.49765
 Alpha  occ. eigenvalues --   -0.47261  -0.46257  -0.46154  -0.45202  -0.44744
 Alpha  occ. eigenvalues --   -0.43532  -0.42421  -0.40175  -0.39544  -0.39035
 Alpha  occ. eigenvalues --   -0.38045  -0.37290  -0.35698  -0.34828  -0.32985
 Alpha  occ. eigenvalues --   -0.31672
 Alpha virt. eigenvalues --    0.00308   0.01300   0.01344   0.01578   0.02735
 Alpha virt. eigenvalues --    0.02944   0.03123   0.03881   0.03952   0.05017
 Alpha virt. eigenvalues --    0.05138   0.05360   0.05997   0.06315   0.07499

 Mulliken charges:
               1
     1  C   -0.505024
     2  C   -0.098654
     3  C    0.170402
     4  C   -0.400606
     5  C   -0.228852
     6  O   -0.369120
     7  C   -0.277272
     8  C   -0.124306
     9  C   -0.401797
    10  C   -0.307990
    11  O   -0.293364
    12  O   -0.346107
    13  C   -0.307267
    14  H    0.206322
    15  H    0.208773
    16  H    0.245949
    17  H    0.238032
    18  H    0.170805
    19  H    0.186439
    20  H    0.209633
    21  H    0.153871
    22  H    0.160850
    23  H    0.192613
    24  H    0.207057
    25  H    0.145231
    26  H    0.201593
    27  H    0.187663
    28  H    0.183286
    29  H    0.165240
    30  H    0.197274
    31  H    0.229328
 Sum of Mulliken charges =  -0.00000

 Dipole moment (field-independent basis, Debye):
    X=             -1.6997    Y=              2.0063    Z=             -1.7157  Tot=              3.1397
 Quadrupole moment (field-independent basis, Debye-Ang):
   XX=            -70.9372   YY=            -86.9050   ZZ=            -73.7691
   XY=              9.5493   XZ=              0.6576   YZ=             -0.5269

  Exact polarizability: 180.899   0.615 168.654   2.200  -0.771 173.718
 Approx polarizability: 144.630  -0.075 141.460   1.304  -0.919 144.208

                      1                      2                      3
                      A                      A                      A
 Frequencies --      9.5105                49.7755                94.5840
 Red. masses --      3.3860                 3.9976                 3.4339
 Frc consts  --      0.0002                 0.0058                 0.0181
 IR Inten    --      8.2039                 0.7484                 1.4947

                      4                      5                      6
                      A                      A                      A
 Frequencies --    147.5748               174.5384               209.0445
 Red. masses --      3.3070                 3.0874                 4.1749
 Frc consts  --      0.0424                 0.0554                 0.1075
 IR Inten    --      0.3953                 0.6819                24.4156

                      7                      8                      9
                      A                      A                      A
 Frequencies --    250.7569               273.7983               339.2792
 Red. masses --      3.2496                 2.0768                 2.0382
 Frc consts  --      0.1204                 0.0917                 0.1382
 IR Inten    --      0.6401                 6.2498                 4.7601

                     10                     11                     12
                      A                      A                      A
 Frequencies --    376.4388               402.1608               432.4167
 Red. masses --      2.0950                 2.3347                 2.7066
 Frc consts  --      0.1749                 0.2225                 0.2982
 IR Inten    --      0.4135                 9.7295                14.4278

                     13                     14                     15
                      A                      A                      A
 Frequencies --    438.7724               485.5992               521.1020
 Red. masses --      2.5804                 3.7315                 2.4631
 Frc consts  --      0.2927                 0.5184                 0.3941
 IR Inten    --      0.6376                 8.9461                 6.7377

                     16                     17                     18
                      A                      A                      A
 Frequencies --    533.0796               584.9108               680.9659
 Red. masses --      2.6242                 2.6562                 2.7303
 Frc consts  --      0.4394                 0.5354                 0.7459
 IR Inten    --      6.1206                 4.1556                 2.2720

                     19                     20                     21
                      A                      A                      A
 Frequencies --    744.8835               817.9942               846.6257
 Red. masses --      2.6676                 2.0521                 3.0404
 Frc consts  --      0.8721                 0.8090                 1.2840
 IR Inten    --      4.0885                 2.4611                11.5917

                     22                     23                     24
                      A                      A                      A
 Frequencies --    847.3887               860.8452               879.3996
 Red. masses --      2.5574                 2.0713                 1.6925
 Frc consts  --      1.0820                 0.9043                 0.7712
 IR Inten    --      5.1670                 0.8691                12.6409

                     25                     26                     27
                      A                      A                      A
 Frequencies --    901.9032               903.5888               914.8158
 Red. masses --      2.3195                 2.5626                 2.4623
 Frc consts  --      1.1117                 1.2327                 1.2141
 IR Inten    --     35.4738                20.5354                74.1140

                     28                     29                     30
                      A                      A                      A
 Frequencies --    928.6850               943.3761               993.6956
 Red. masses --      1.9430                 1.5643                 2.0476
 Frc consts  --      0.9873                 0.8202                 1.1913
 IR Inten    --     10.2559                21.1679                59.0780

                     31                     32                     33
                      A                      A                      A
 Frequencies --   1029.9288              1037.0926              1056.4086
 Red. masses --      2.0397                 2.3030                 1.9192
 Frc consts  --      1.2748                 1.4594                 1.2620
 IR Inten    --     65.4841                53.3931                21.4993

                     34                     35                     36
                      A                      A                      A
 Frequencies --   1065.1570              1069.6156              1074.2602
 Red. masses --      1.6287                 2.3610                 1.8982
 Frc consts  --      1.0887                 1.5915                 1.2906
 IR Inten    --     87.6527               190.9311                30.0814

                     37                     38                     39
                      A                      A                      A
 Frequencies --   1092.5485              1146.5376              1152.7734
 Red. masses --      1.6113                 2.7774                 2.3548
 Frc consts  --      1.1332                 2.1511                 1.8437
 IR Inten    --     14.7725               167.0750                79.1782

                     40                     41                     42
                      A                      A                      A
 Frequencies --   1167.9948              1195.1067              1210.3313
 Red. masses --      2.3989                 1.7801                 1.4867
 Frc consts  --      1.9282                 1.4980                 1.2831
 IR Inten    --     58.6828                60.0457                20.3632

                     43                     44                     45
                      A                      A                      A
 Frequencies --   1221.7905              1237.6351              1260.3548
 Red. masses --      1.3619                 1.7912                 2.3033
 Frc consts  --      1.1978                 1.6165                 2.1557
 IR Inten    --     43.7006                28.0810               212.3847

                     46                     47                     48
                      A                      A                      A
 Frequencies --   1286.0930              1296.5169              1326.3229
 Red. masses --      1.2485                 1.1318                 1.1688
 Frc consts  --      1.2167                 1.1209                 1.2114
 IR Inten    --     50.1563                18.7304                31.8778

                     49                     50                     51
                      A                      A                      A
 Frequencies --   1337.2186              1358.0738              1358.7507
 Red. masses --      1.2442                 1.4101                 1.5138
 Frc consts  --      1.3108                 1.5323                 1.6466
 IR Inten    --     12.8541                 0.8510                 9.5482

                     52                     53                     54
                      A                      A                      A
 Frequencies --   1364.9801              1379.9070              1385.6272
 Red. masses --      1.4157                 1.5073                 1.4911
 Frc consts  --      1.5541                 1.6910                 1.6868
 IR Inten    --      6.6793                17.8579                 4.1204

                     55                     56                     57
                      A                      A                      A
 Frequencies --   1393.5327              1398.5649              1406.3241
 Red. masses --      1.6006                 1.4290                 1.3855
 Frc consts  --      1.8314                 1.6469                 1.6144
 IR Inten    --      8.5519                27.9392                 4.0163

                     58                     59                     60
                      A                      A                      A
 Frequencies --   1414.2590              1429.1493              1430.8122
 Red. masses --      1.3630                 1.2553                 1.3780
 Frc consts  --      1.6062                 1.5107                 1.6621
 IR Inten    --      4.0118                 1.8844                 5.5061

                     61                     62                     63
                      A                      A                      A
 Frequencies --   1458.8495              1469.6282              1470.0700
 Red. masses --      1.3575                 1.0920                 1.1026
 Frc consts  --      1.7022                 1.3896                 1.4040
 IR Inten    --     24.6275                 4.6177                 8.0372

                     64                     65                     66
                      A                      A                      A
 Frequencies --   1474.7800              1481.2650              1487.7589
 Red. masses --      1.0904                 1.1174                 1.0881
 Frc consts  --      1.3973                 1.4446                 1.4190
 IR Inten    --     10.4748                19.4770                 3.8207

                     67                     68                     69
                      A                      A                      A
 Frequencies --   1490.3418              1502.7689              1508.0137
 Red. masses --      1.1443                 1.0999                 1.1040
 Frc consts  --      1.4974                 1.4634                 1.4792
 IR Inten    --     21.7220                 5.9683                 7.6035

                     70                     71                     72
                      A                      A                      A
 Frequencies --   3028.3075              3045.0471              3059.0477
 Red. masses --      1.0700                 1.0678                 1.0781
 Frc consts  --      5.7812                 5.8334                 5.9442
 IR Inten    --     76.8417                63.9459                97.2546

                     73                     74                     75
                      A                      A                      A
 Frequencies --   3062.1941              3064.1675              3069.8482
 Red. masses --      1.0732                 1.0673                 1.0620
 Frc consts  --      5.9294                 5.9040                 5.8964
 IR Inten    --      5.4998                18.3495                45.7341

                     76                     77                     78
                      A                      A                      A
 Frequencies --   3070.5554              3074.4326              3081.9035
 Red. masses --      1.0655                 1.0611                 1.0658
 Frc consts  --      5.9190                 5.9095                 5.9645
 IR Inten    --     33.4615                42.6869                57.9869

                     79                     80                     81
                      A                      A                      A
 Frequencies --   3119.6077              3119.9195              3122.1595
 Red. masses --      1.0975                 1.0987                 1.1015
 Frc consts  --      6.2927                 6.3012                 6.3261
 IR Inten    --     26.5489                44.6568                65.5076

                     82                     83                     84
                      A                      A                      A
 Frequencies --   3124.5379              3132.2964              3134.4384
 Red. masses --      1.1027                 1.1019                 1.0882
 Frc consts  --      6.3428                 6.3698                 6.2989
 IR Inten    --     54.4107                34.4777                63.1336

                     85                     86                     87
                      A                      A                      A
 Frequencies --   3135.0315              3137.9002              3143.4465
 Red. masses --      1.0956                 1.0954                 1.0971
 Frc consts  --      6.3442                 6.3547                 6.3871
 IR Inten    --     67.8314                21.9242                30.8152

 - Thermochemistry -
 -------------------
 Temperature   298.150 Kelvin.  Pressure   1.00000 Atm.
 Atom     1 has atomic number  6 and mass  12.00000

 Molecular mass:   186.12559 amu.
 Principal axes and moments of inertia in atomic units:
                           1         2         3
     Eigenvalues --  1001.445973958.601584114.67508
           X            0.99985   0.01721   0.00341
           Y           -0.01714   0.99968  -0.01878
           Z           -0.00374   0.01872   0.99982
 This molecule is an asymmetric top.
 Rotational symmetry number  1.
 Warning -- assumption of classical behavior for rotation
           may cause significant error
 Rotational temperatures (Kelvin)      0.08649     0.02188     0.02105
 Rotational constants (GHZ):           1.80214     0.45590     0.43861
 Zero-point vibrational energy     737135.9 (Joules/Mol)
                                  176.17970 (Kcal/Mol)
 Warning -- explicit consideration of  17 degrees of freedom as
           vibrations may cause significant error
 Vibrational temperatures:     13.68    71.62   136.09   212.33   251.12
          (Kelvin)            300.77   360.78   393.93   488.15   541.61
                              578.62   622.15   631.30   698.67   749.75
                              766.98   841.56   979.76  1071.72  1176.91
                             1218.11  1219.20  1238.56  1265.26  1297.64
                             1300.06  1316.22  1336.17  1357.31  1429.71
                             1481.84  1492.14  1519.94  1532.52  1538.94
                             1545.62  1571.93  1649.61  1658.58  1680.48
                             1719.49  1741.40  1757.88  1780.68  1813.37
                             1850.40  1865.40  1908.28  1923.96  1953.97
                             1954.94  1963.90  1985.38  1993.61  2004.98
                             2012.22  2023.39  2034.80  2056.23  2058.62
                             2098.96  2114.47  2115.10  2121.88  2131.21
                             2140.55  2144.27  2162.15  2169.70  4357.06
                             4381.14  4401.29  4405.81  4408.65  4416.83
                             4417.84  4423.42  4434.17  4488.42  4488.87
                             4492.09  4495.51  4506.68  4509.76  4510.61
                             4514.74  4522.72

 Zero-point correction=                           0.280760 (Hartree/Particle)
 Thermal correction to Energy=                    0.292558
 Thermal correction to Enthalpy=                  0.293503
 Thermal correction to Gibbs Free Energy=         0.241049
 Sum of electronic and zero-point Energies=           -617.221333
 Sum of electronic and thermal Energies=              -617.209535
 Sum of electronic and thermal Enthalpies=            -617.208590
 Sum of electronic and thermal Free Energies=         -617.261044

                     E (Thermal)             CV                S
                      KCal/Mol        Cal/Mol-Kelvin    Cal/Mol-Kelvin
 Total                  183.583             46.649            110.399
 Electronic               0.000              0.000              0.000
 Translational            0.889              2.981             41.570
 Rotational               0.889              2.981             31.168
 Vibrational            181.806             40.687             37.661
 Vibration     1          0.593              1.987              8.111
 Vibration     2          0.595              1.978              4.826
 Vibration     3          0.603              1.953              3.563
 Vibration     4          0.617              1.905              2.703
 Vibration     5          0.627              1.874              2.386
 Vibration     6          0.642              1.827              2.052
 Vibration     7          0.663              1.761              1.725
 Vibration     8          0.676              1.722              1.572
 Vibration     9          0.719              1.597              1.216
 Vibration    10          0.747              1.520              1.053
 Vibration    11          0.768              1.465              0.955
 Vibration    12          0.793              1.400              0.851
 Vibration    13          0.799              1.386              0.830
 Vibration    14          0.842              1.282              0.695
 Vibration    15          0.876              1.203              0.607
 Vibration    16          0.888              1.177              0.580
 Vibration    17          0.942              1.064              0.476

 Optimization completed.
    -- Stationary point found.
 Normal termination of Gaussian 16 at Fri Mar  8 22:21:46 2019.
