 Gaussian 16, Revision B.01,
 Gaussian 16:  ES64L-G16RevB.01 20-Dec-2017

 ----------------------------------------------------------------------
 #M062X/6-311++G(2d,2p) opt=ModRedundant freq=noraman SCRF=(SMD,solvent
 =water)
 ----------------------------------------------------------------------

 -------------------------------
 4c1_a1_a4_4c1_PHI.inp_extract_7
 -------------------------------
 Symbolic Z-matrix:
 Charge =  0 Multiplicity = 1

 SCF Done:  E(RM062X) =  -617.502241893     A.U. after   12 cycles
 SCF Done:  E(RM062X) =  -617.503893428     A.U. after   10 cycles
 SCF Done:  E(RM062X) =  -617.504039604     A.U. after   10 cycles
 SCF Done:  E(RM062X) =  -617.504098818     A.U. after    9 cycles
 SCF Done:  E(RM062X) =  -617.504104925     A.U. after    9 cycles
 SCF Done:  E(RM062X) =  -617.504108354     A.U. after    9 cycles
 SCF Done:  E(RM062X) =  -617.504123451     A.U. after    9 cycles
 SCF Done:  E(RM062X) =  -617.504137841     A.U. after    9 cycles
 SCF Done:  E(RM062X) =  -617.504125889     A.U. after    9 cycles
 SCF Done:  E(RM062X) =  -617.504137977     A.U. after    8 cycles
 SCF Done:  E(RM062X) =  -617.504134327     A.U. after    8 cycles
 SCF Done:  E(RM062X) =  -617.504139137     A.U. after    8 cycles
 SCF Done:  E(RM062X) =  -617.504138427     A.U. after    7 cycles
 Optimization completed.
    -- Stationary point found.
 Normal termination of Gaussian 16 at Fri Mar  8 16:24:57 2019.

 ----------------------------------------------------------------------
 #N Geom=AllCheck Guess=TCheck SCRF=Check GenChk RM062X/6-311++G(2d,2p)
  Freq
 ----------------------------------------------------------------------

 Structure from the checkpoint file:  "4c1_a1_a4_4c1_PHI.inp_extract_7.chk"
 -------------------------------
 4c1_a1_a4_4c1_PHI.inp_extract_7
 -------------------------------
 Charge =  0 Multiplicity = 1

                         Standard orientation:
 ---------------------------------------------------------------------
 Center     Atomic      Atomic             Coordinates (Angstroms)
 Number     Number       Type             X           Y           Z
 ---------------------------------------------------------------------
      1          6           0       -1.985654   -1.143245    0.698550
      2          6           0        1.077968   -0.951535    0.088248
      3          6           0       -1.003473    0.009109    0.863550
      4          6           0        3.423330    0.673774   -0.339205
      5          6           0       -3.451001    0.135572   -0.630542
      6          8           0       -2.687999   -1.066846   -0.533903
      7          6           0        2.667701    0.776543    0.983266
      8          6           0        2.478592    0.231647   -1.440347
      9          6           0        1.964734   -0.548959    1.259823
     10          6           0       -2.553234    1.358947   -0.577935
     11          8           0        1.816776   -0.999033   -1.109752
     12          8           0        0.012184   -0.042159   -0.139341
     13          6           0       -1.728473    1.339454    0.708009
     14          1           0       -2.695198   -1.121669    1.533335
     15          1           0       -1.473931   -2.103720    0.705523
     16          1           0        0.683251   -1.959159    0.227964
     17          1           0       -0.559480   -0.054282    1.857674
     18          1           0        4.230082   -0.057012   -0.244258
     19          1           0        3.869342    1.628561   -0.619098
     20          1           0       -3.994610    0.077134   -1.571161
     21          1           0       -4.175554    0.161505    0.191868
     22          1           0        1.929408    1.580300    0.924116
     23          1           0        3.346680    1.018964    1.799904
     24          1           0        3.010261    0.029054   -2.367244
     25          1           0        1.730446    1.003182   -1.634287
     26          1           0        2.704041   -1.343787    1.379697
     27          1           0        1.383516   -0.514100    2.179285
     28          1           0       -3.166730    2.258733   -0.626409
     29          1           0       -1.897254    1.358606   -1.450120
     30          1           0       -1.002934    2.152554    0.729824
     31          1           0       -2.391969    1.461592    1.566859
 ---------------------------------------------------------------------

 SCF Done:  E(RM062X) =  -617.504138427     A.U. after    1 cycles

 The electronic state is 1-A.
 Alpha  occ. eigenvalues --  -19.63240 -19.62882 -19.62878 -10.63296 -10.58361
 Alpha  occ. eigenvalues --  -10.57433 -10.57310 -10.57300 -10.52609 -10.52382
 Alpha  occ. eigenvalues --  -10.52333 -10.52280 -10.52213  -1.19777  -1.16180
 Alpha  occ. eigenvalues --   -1.13020  -0.90004  -0.89462  -0.86345  -0.84466
 Alpha  occ. eigenvalues --   -0.74138  -0.73307  -0.72696  -0.70865  -0.65997
 Alpha  occ. eigenvalues --   -0.61619  -0.59022  -0.58623  -0.56933  -0.55336
 Alpha  occ. eigenvalues --   -0.54158  -0.53152  -0.51183  -0.50249  -0.49262
 Alpha  occ. eigenvalues --   -0.47278  -0.46546  -0.45784  -0.45367  -0.44989
 Alpha  occ. eigenvalues --   -0.43384  -0.42529  -0.40271  -0.39708  -0.38673
 Alpha  occ. eigenvalues --   -0.37973  -0.37524  -0.36419  -0.34650  -0.33018
 Alpha  occ. eigenvalues --   -0.31386
 Alpha virt. eigenvalues --    0.00341   0.01294   0.01350   0.01607   0.02748
 Alpha virt. eigenvalues --    0.02923   0.03186   0.03812   0.04007   0.05022
 Alpha virt. eigenvalues --    0.05274   0.05377   0.05770   0.06342   0.07703

 Mulliken charges:
               1
     1  C   -0.450017
     2  C   -0.104751
     3  C    0.115728
     4  C   -0.372797
     5  C   -0.214907
     6  O   -0.355180
     7  C   -0.332420
     8  C   -0.245595
     9  C   -0.160780
    10  C   -0.273670
    11  O   -0.347233
    12  O   -0.375783
    13  C   -0.428714
    14  H    0.200905
    15  H    0.208610
    16  H    0.312725
    17  H    0.241468
    18  H    0.169730
    19  H    0.174584
    20  H    0.211935
    21  H    0.156349
    22  H    0.157964
    23  H    0.190327
    24  H    0.221314
    25  H    0.171522
    26  H    0.208092
    27  H    0.184254
    28  H    0.186519
    29  H    0.164836
    30  H    0.170920
    31  H    0.214063
 Sum of Mulliken charges =  -0.00000

 Dipole moment (field-independent basis, Debye):
    X=              0.1863    Y=              2.7382    Z=              4.6024  Tot=              5.3586
 Quadrupole moment (field-independent basis, Debye-Ang):
   XX=            -72.1060   YY=            -80.8638   ZZ=            -78.4750
   XY=             -2.7244   XZ=             -2.4971   YZ=             -6.5268

  Exact polarizability: 180.315  -1.210 170.326  -1.740  -3.101 171.767
 Approx polarizability: 144.688  -1.938 141.883  -1.934  -1.544 142.894

 ******    1 imaginary frequencies (negative Signs) ******

                      1                      2                      3
                      A                      A                      A
 Frequencies --    -27.8263                54.2294                82.2512
 Red. masses --      3.6555                 3.9888                 3.6831
 Frc consts  --      0.0017                 0.0069                 0.0147
 IR Inten    --      0.0158                 1.9552                 1.1377

                      4                      5                      6
                      A                      A                      A
 Frequencies --    150.1256               175.8063               240.4686
 Red. masses --      3.6461                 3.0218                 2.7740
 Frc consts  --      0.0484                 0.0550                 0.0945
 IR Inten    --      3.8200                 6.0016                 6.2849

                      7                      8                      9
                      A                      A                      A
 Frequencies --    260.7144               293.3096               347.1719
 Red. masses --      2.4296                 2.8676                 2.1892
 Frc consts  --      0.0973                 0.1454                 0.1555
 IR Inten    --      0.8216                 2.3413                 3.0644

                     10                     11                     12
                      A                      A                      A
 Frequencies --    383.7436               416.1298               432.4420
 Red. masses --      2.4229                 3.0025                 2.1280
 Frc consts  --      0.2102                 0.3063                 0.2345
 IR Inten    --      4.2804                21.1294                 5.7857

                     13                     14                     15
                      A                      A                      A
 Frequencies --    446.3098               510.5463               521.0389
 Red. masses --      2.5464                 3.2225                 2.6595
 Frc consts  --      0.2988                 0.4949                 0.4254
 IR Inten    --      3.8712                18.0388                 0.7164

                     16                     17                     18
                      A                      A                      A
 Frequencies --    526.8152               545.4642               670.6373
 Red. masses --      3.3513                 2.1498                 2.3926
 Frc consts  --      0.5480                 0.3769                 0.6340
 IR Inten    --      3.3490                11.2449                 3.8859

                     19                     20                     21
                      A                      A                      A
 Frequencies --    749.6668               829.7138               847.0096
 Red. masses --      2.4580                 1.7196                 2.7806
 Frc consts  --      0.8139                 0.6975                 1.1753
 IR Inten    --     12.0382                 0.7824                 1.1940

                     22                     23                     24
                      A                      A                      A
 Frequencies --    851.4847               873.9541               880.1364
 Red. masses --      3.5376                 1.8075                 2.0442
 Frc consts  --      1.5112                 0.8134                 0.9330
 IR Inten    --     11.0050                18.5524                25.3947

                     25                     26                     27
                      A                      A                      A
 Frequencies --    897.5189               903.1556               907.8572
 Red. masses --      2.4658                 2.5639                 2.0047
 Frc consts  --      1.1703                 1.2322                 0.9735
 IR Inten    --     16.5333                55.1346                40.2131

                     28                     29                     30
                      A                      A                      A
 Frequencies --    935.8849               950.2307              1006.0429
 Red. masses --      1.7663                 1.7470                 1.7860
 Frc consts  --      0.9115                 0.9294                 1.0650
 IR Inten    --     23.4702                 7.8284                 5.9785

                     31                     32                     33
                      A                      A                      A
 Frequencies --   1028.1098              1040.9884              1054.8725
 Red. masses --      2.1042                 2.4862                 1.8473
 Frc consts  --      1.3104                 1.5874                 1.2112
 IR Inten    --     25.1607                39.5276                18.2515

                     34                     35                     36
                      A                      A                      A
 Frequencies --   1066.5823              1066.9046              1075.4496
 Red. masses --      2.0171                 2.0367                 1.6924
 Frc consts  --      1.3520                 1.3659                 1.1533
 IR Inten    --     39.3998               172.0716                81.8993

                     37                     38                     39
                      A                      A                      A
 Frequencies --   1099.2148              1148.6241              1152.7750
 Red. masses --      1.6325                 2.6887                 2.6576
 Frc consts  --      1.1622                 2.0900                 2.0808
 IR Inten    --    104.9420               234.5565                78.3643

                     40                     41                     42
                      A                      A                      A
 Frequencies --   1174.5401              1193.9235              1210.8184
 Red. masses --      2.4119                 1.7791                 1.4456
 Frc consts  --      1.9604                 1.4942                 1.2487
 IR Inten    --     19.2350                30.6126                11.4960

                     43                     44                     45
                      A                      A                      A
 Frequencies --   1226.8952              1241.8381              1274.0689
 Red. masses --      1.3999                 1.7776                 1.5037
 Frc consts  --      1.2416                 1.6152                 1.4381
 IR Inten    --     58.9247                39.9653                57.5996

                     46                     47                     48
                      A                      A                      A
 Frequencies --   1286.2336              1302.1348              1319.7069
 Red. masses --      1.6226                 1.1739                 1.2188
 Frc consts  --      1.5816                 1.1727                 1.2507
 IR Inten    --    153.2504                10.5732                39.7107

                     49                     50                     51
                      A                      A                      A
 Frequencies --   1336.0865              1355.2637              1360.1322
 Red. masses --      1.2377                 1.3451                 1.5022
 Frc consts  --      1.3018                 1.4556                 1.6373
 IR Inten    --     15.7722                12.6962                 3.6344

                     52                     53                     54
                      A                      A                      A
 Frequencies --   1367.9838              1380.8332              1381.8473
 Red. masses --      1.5308                 1.3537                 1.6001
 Frc consts  --      1.6878                 1.5208                 1.8002
 IR Inten    --      5.4670                27.2499                14.8587

                     55                     56                     57
                      A                      A                      A
 Frequencies --   1388.8063              1396.1191              1404.7398
 Red. masses --      1.5919                 1.3823                 1.3423
 Frc consts  --      1.8090                 1.5874                 1.5606
 IR Inten    --      6.7327                36.6800                 5.0078

                     58                     59                     60
                      A                      A                      A
 Frequencies --   1408.7050              1421.7413              1431.8934
 Red. masses --      1.4298                 1.3257                 1.3717
 Frc consts  --      1.6718                 1.5789                 1.6570
 IR Inten    --      7.9396                 5.7061                 3.1638

                     61                     62                     63
                      A                      A                      A
 Frequencies --   1454.5286              1469.9514              1472.1810
 Red. masses --      1.5103                 1.0888                 1.0955
 Frc consts  --      1.8826                 1.3862                 1.3989
 IR Inten    --     42.4561                 7.2202                 5.4507

                     64                     65                     66
                      A                      A                      A
 Frequencies --   1479.9292              1482.7948              1492.9310
 Red. masses --      1.1194                 1.1083                 1.1201
 Frc consts  --      1.4445                 1.4357                 1.4709
 IR Inten    --     14.1265                15.3878                29.0027

                     67                     68                     69
                      A                      A                      A
 Frequencies --   1494.2965              1503.0651              1506.2830
 Red. masses --      1.0863                 1.1016                 1.1083
 Frc consts  --      1.4291                 1.4664                 1.4816
 IR Inten    --      4.8645                 8.5843                12.4800

                     70                     71                     72
                      A                      A                      A
 Frequencies --   3031.6849              3044.1266              3062.3066
 Red. masses --      1.0697                 1.0690                 1.0687
 Frc consts  --      5.7925                 5.8366                 5.9048
 IR Inten    --     74.7699                54.7657                21.3681

                     73                     74                     75
                      A                      A                      A
 Frequencies --   3067.1062              3073.3219              3073.8091
 Red. masses --      1.0635                 1.0636                 1.0640
 Frc consts  --      5.8943                 5.9190                 5.9228
 IR Inten    --     42.0448                24.4081                60.6631

                     76                     77                     78
                      A                      A                      A
 Frequencies --   3078.3155              3080.0617              3093.5879
 Red. masses --      1.0614                 1.0681                 1.0852
 Frc consts  --      5.9259                 5.9699                 6.1188
 IR Inten    --     30.2814                15.4213                66.8920

                     79                     80                     81
                      A                      A                      A
 Frequencies --   3102.7428              3117.5029              3120.1924
 Red. masses --      1.0860                 1.0968                 1.1006
 Frc consts  --      6.1599                 6.2806                 6.3129
 IR Inten    --     50.7008                35.1855                36.1298

                     82                     83                     84
                      A                      A                      A
 Frequencies --   3120.7838              3126.4352              3136.1890
 Red. masses --      1.1024                 1.1040                 1.0965
 Frc consts  --      6.3258                 6.3582                 6.3541
 IR Inten    --     74.8982                58.8504                48.4077

                     85                     86                     87
                      A                      A                      A
 Frequencies --   3140.2824              3140.7474              3143.5358
 Red. masses --      1.0958                 1.0950                 1.1005
 Frc consts  --      6.3670                 6.3642                 6.4074
 IR Inten    --     62.7744                23.2973                36.4933

 - Thermochemistry -
 -------------------
 Temperature   298.150 Kelvin.  Pressure   1.00000 Atm.
 Atom     1 has atomic number  6 and mass  12.00000

 Molecular mass:   186.12559 amu.
 Principal axes and moments of inertia in atomic units:
                           1         2         3
     Eigenvalues --  1069.086824004.386734055.68987
           X            1.00000  -0.00119   0.00171
           Y            0.00180   0.90357  -0.42844
           Z           -0.00103   0.42844   0.90357
 This molecule is an asymmetric top.
 Rotational symmetry number  1.
 Warning -- assumption of classical behavior for rotation
           may cause significant error
 Rotational temperatures (Kelvin)      0.08102     0.02163     0.02136
 Rotational constants (GHZ):           1.68811     0.45069     0.44499
    1 imaginary frequencies ignored.
 Zero-point vibrational energy     738074.3 (Joules/Mol)
                                  176.40399 (Kcal/Mol)
 Warning -- explicit consideration of  16 degrees of freedom as
           vibrations may cause significant error
 Vibrational temperatures:     78.02   118.34   216.00   252.95   345.98
          (Kelvin)            375.11   422.01   499.50   552.12   598.72
                              622.19   642.14   734.56   749.66   757.97
                              784.80   964.90  1078.60  1193.77  1218.66
                             1225.10  1257.42  1266.32  1291.33  1299.44
                             1306.20  1346.53  1367.17  1447.47  1479.22
                             1497.75  1517.73  1534.57  1535.04  1547.33
                             1581.52  1652.61  1658.59  1689.90  1717.79
                             1742.10  1765.23  1786.73  1833.10  1850.60
                             1873.48  1898.76  1922.33  1949.92  1956.93
                             1968.22  1986.71  1988.17  1998.18  2008.70
                             2021.11  2026.81  2045.57  2060.18  2092.74
                             2114.93  2118.14  2129.29  2133.41  2147.99
                             2149.96  2162.58  2167.21  4361.92  4379.82
                             4405.98  4412.88  4421.82  4422.53  4429.01
                             4431.52  4450.98  4464.15  4485.39  4489.26
                             4490.11  4498.24  4512.28  4518.17  4518.83
                             4522.85

 Zero-point correction=                           0.281118 (Hartree/Particle)
 Thermal correction to Energy=                    0.291881
 Thermal correction to Enthalpy=                  0.292825
 Thermal correction to Gibbs Free Energy=         0.244439
 Sum of electronic and zero-point Energies=           -617.223021
 Sum of electronic and thermal Energies=              -617.212258
 Sum of electronic and thermal Enthalpies=            -617.211314
 Sum of electronic and thermal Free Energies=         -617.259700

                     E (Thermal)             CV                S
                      KCal/Mol        Cal/Mol-Kelvin    Cal/Mol-Kelvin
 Total                  183.158             44.460            101.837
 Electronic               0.000              0.000              0.000
 Translational            0.889              2.981             41.570
 Rotational               0.889              2.981             31.230
 Vibrational            181.380             38.499             29.038
 Vibration     1          0.596              1.976              4.657
 Vibration     2          0.600              1.961              3.836
 Vibration     3          0.618              1.903              2.671
 Vibration     4          0.628              1.872              2.372
 Vibration     5          0.658              1.778              1.799
 Vibration     6          0.669              1.745              1.657
 Vibration     7          0.688              1.686              1.455
 Vibration     8          0.725              1.581              1.179
 Vibration     9          0.753              1.505              1.024
 Vibration    10          0.779              1.435              0.905
 Vibration    11          0.793              1.400              0.851
 Vibration    12          0.806              1.369              0.807
 Vibration    13          0.866              1.227              0.632
 Vibration    14          0.876              1.203              0.608
 Vibration    15          0.882              1.191              0.594
 Vibration    16          0.901              1.150              0.554

 Optimization completed on the basis of negligible forces.
    -- Stationary point found.
 Normal termination of Gaussian 16 at Fri Mar  8 17:29:00 2019.
