 Gaussian 16, Revision B.01,
 Gaussian 16:  ES64L-G16RevB.01 20-Dec-2017

 ----------------------------------------------------------------------
 #M062X/6-311++G(2d,2p) opt=ModRedundant freq=noraman SCRF=(SMD,solvent
 =water)
 ----------------------------------------------------------------------

 --------------------------------
 4c1_a1_a4_4c1_PHI.inp_extract_10
 --------------------------------
 Symbolic Z-matrix:
 Charge =  0 Multiplicity = 1

 SCF Done:  E(RM062X) =  -617.499196411     A.U. after   12 cycles
 SCF Done:  E(RM062X) =  -617.500482623     A.U. after   11 cycles
 SCF Done:  E(RM062X) =  -617.501082512     A.U. after   10 cycles
 SCF Done:  E(RM062X) =  -617.501240164     A.U. after   10 cycles
 SCF Done:  E(RM062X) =  -617.501255488     A.U. after    9 cycles
 SCF Done:  E(RM062X) =  -617.501259069     A.U. after    8 cycles
 SCF Done:  E(RM062X) =  -617.501258689     A.U. after    7 cycles
 Optimization completed.
    -- Stationary point found.
 Normal termination of Gaussian 16 at Fri Mar  8 16:26:12 2019.

 ----------------------------------------------------------------------
 #N Geom=AllCheck Guess=TCheck SCRF=Check GenChk RM062X/6-311++G(2d,2p)
  Freq
 ----------------------------------------------------------------------

 Structure from the checkpoint file:  "4c1_a1_a4_4c1_PHI.inp_extract_10.chk"
 --------------------------------
 4c1_a1_a4_4c1_PHI.inp_extract_10
 --------------------------------
 Charge =  0 Multiplicity = 1

                         Standard orientation:
 ---------------------------------------------------------------------
 Center     Atomic      Atomic             Coordinates (Angstroms)
 Number     Number       Type             X           Y           Z
 ---------------------------------------------------------------------
      1          6           0        1.767172    1.325997    0.209665
      2          6           0       -1.077430    0.475135   -0.955207
      3          6           0        0.822568    0.201734    0.615529
      4          6           0       -3.398064   -0.396375    0.563654
      5          6           0        3.546337   -0.157372   -0.217716
      6          8           0        2.729618    0.889941   -0.740364
      7          6           0       -2.466714    0.644884    1.175867
      8          6           0       -2.605143   -1.272285   -0.384393
      9          6           0       -1.733344    1.399145    0.065957
     10          6           0        2.714206   -1.379613    0.127185
     11          8           0       -1.998452   -0.489216   -1.418600
     12          8           0        0.065881   -0.243261   -0.509963
     13          6           0        1.618162   -0.995058    1.119784
     14          1           0        2.273570    1.708096    1.103413
     15          1           0        1.218621    2.142227   -0.258459
     16          1           0       -0.797800    1.042661   -1.843391
     17          1           0        0.171540    0.565865    1.407126
     18          1           0       -4.200805    0.095464    0.009389
     19          1           0       -3.854415   -1.018114    1.334219
     20          1           0        4.285638   -0.378959   -0.984526
     21          1           0        4.066584    0.211234    0.674195
     22          1           0       -1.758250    0.136997    1.833427
     23          1           0       -3.022919    1.352784    1.789681
     24          1           0       -3.237633   -1.991412   -0.899800
     25          1           0       -1.830262   -1.820520    0.158893
     26          1           0       -2.459632    1.984135   -0.501860
     27          1           0       -1.006245    2.104975    0.464479
     28          1           0        3.361403   -2.148674    0.549157
     29          1           0        2.275183   -1.782217   -0.787061
     30          1           0        0.939228   -1.826996    1.308414
     31          1           0        2.073315   -0.714406    2.072169
 ---------------------------------------------------------------------

 SCF Done:  E(RM062X) =  -617.501258689     A.U. after    1 cycles

 The electronic state is 1-A.
 Alpha  occ. eigenvalues --  -19.63099 -19.62874 -19.62777 -10.63454 -10.58299
 Alpha  occ. eigenvalues --  -10.57388 -10.57290 -10.57263 -10.52732 -10.52589
 Alpha  occ. eigenvalues --  -10.52530 -10.52257 -10.52201  -1.19515  -1.16163
 Alpha  occ. eigenvalues --   -1.12872  -0.89913  -0.89712  -0.86394  -0.84583
 Alpha  occ. eigenvalues --   -0.74298  -0.73667  -0.72678  -0.70506  -0.65957
 Alpha  occ. eigenvalues --   -0.61644  -0.59330  -0.58406  -0.56922  -0.55288
 Alpha  occ. eigenvalues --   -0.54252  -0.52900  -0.51478  -0.49841  -0.49270
 Alpha  occ. eigenvalues --   -0.48142  -0.46778  -0.45553  -0.45472  -0.44805
 Alpha  occ. eigenvalues --   -0.43182  -0.42276  -0.40285  -0.39043  -0.38805
 Alpha  occ. eigenvalues --   -0.38032  -0.37131  -0.36618  -0.35132  -0.32895
 Alpha  occ. eigenvalues --   -0.31444
 Alpha virt. eigenvalues --    0.00319   0.01298   0.01443   0.01537   0.02736
 Alpha virt. eigenvalues --    0.02985   0.03181   0.03743   0.03951   0.05099
 Alpha virt. eigenvalues --    0.05180   0.05385   0.05999   0.06440   0.07607

 Mulliken charges:
               1
     1  C   -0.446782
     2  C   -0.013139
     3  C    0.126088
     4  C   -0.361549
     5  C   -0.170702
     6  O   -0.355932
     7  C   -0.266548
     8  C   -0.216342
     9  C   -0.356138
    10  C   -0.300277
    11  O   -0.304870
    12  O   -0.405532
    13  C   -0.487672
    14  H    0.200834
    15  H    0.209514
    16  H    0.283543
    17  H    0.237871
    18  H    0.173246
    19  H    0.174951
    20  H    0.213873
    21  H    0.150270
    22  H    0.168574
    23  H    0.193750
    24  H    0.227515
    25  H    0.150247
    26  H    0.229339
    27  H    0.188894
    28  H    0.188972
    29  H    0.173809
    30  H    0.171720
    31  H    0.222473
 Sum of Mulliken charges =  -0.00000

 Dipole moment (field-independent basis, Debye):
    X=             -0.6498    Y=              0.8995    Z=              5.5743  Tot=              5.6836
 Quadrupole moment (field-independent basis, Debye-Ang):
   XX=            -74.3734   YY=            -76.5595   ZZ=            -84.1839
   XY=             -4.6942   XZ=              1.4565   YZ=             -0.5067

  Exact polarizability: 181.718  -0.555 172.652   1.102  -0.329 168.823
 Approx polarizability: 145.664  -0.640 142.054   1.678  -0.340 142.632

 ******    1 imaginary frequencies (negative Signs) ******

                      1                      2                      3
                      A                      A                      A
 Frequencies --    -22.9444                55.4412               100.1775
 Red. masses --      4.0906                 3.7435                 3.3546
 Frc consts  --      0.0013                 0.0068                 0.0198
 IR Inten    --      2.6068                 0.6223                 0.5463

                      4                      5                      6
                      A                      A                      A
 Frequencies --    156.1795               188.1604               216.6791
 Red. masses --      4.1831                 2.7911                 3.2582
 Frc consts  --      0.0601                 0.0582                 0.0901
 IR Inten    --      2.5107                 6.9129                 6.3518

                      7                      8                      9
                      A                      A                      A
 Frequencies --    258.2605               291.5024               348.9730
 Red. masses --      2.4233                 2.7572                 2.1865
 Frc consts  --      0.0952                 0.1380                 0.1569
 IR Inten    --      1.2046                 4.3366                 6.9660

                     10                     11                     12
                      A                      A                      A
 Frequencies --    385.7476               406.3383               436.8910
 Red. masses --      2.2451                 2.5881                 2.3637
 Frc consts  --      0.1968                 0.2518                 0.2658
 IR Inten    --      1.7106                19.7590                 5.7310

                     13                     14                     15
                      A                      A                      A
 Frequencies --    438.9874               499.1539               523.1552
 Red. masses --      2.8169                 3.4648                 2.5786
 Frc consts  --      0.3198                 0.5086                 0.4158
 IR Inten    --      2.9501                10.7836                 3.3737

                     16                     17                     18
                      A                      A                      A
 Frequencies --    533.4140               551.6777               684.5466
 Red. masses --      2.8178                 2.1051                 2.6150
 Frc consts  --      0.4724                 0.3775                 0.7220
 IR Inten    --      3.5706                 6.1230                 7.9055

                     19                     20                     21
                      A                      A                      A
 Frequencies --    748.2076               816.4605               842.4238
 Red. masses --      2.5532                 2.2154                 2.2691
 Frc consts  --      0.8421                 0.8701                 0.9488
 IR Inten    --     12.9918                 3.2196                 5.2025

                     22                     23                     24
                      A                      A                      A
 Frequencies --    854.1801               869.8972               874.7699
 Red. masses --      3.2591                 2.3029                 1.6855
 Frc consts  --      1.4010                 1.0267                 0.7599
 IR Inten    --      7.8358                30.3404                22.6918

                     25                     26                     27
                      A                      A                      A
 Frequencies --    901.1322               905.3558               908.1933
 Red. masses --      2.2360                 2.2680                 2.4997
 Frc consts  --      1.0698                 1.0953                 1.2148
 IR Inten    --      3.8382                85.4726                28.8150

                     28                     29                     30
                      A                      A                      A
 Frequencies --    939.2122               948.1883               991.4851
 Red. masses --      1.8246                 1.8978                 1.8909
 Frc consts  --      0.9483                 1.0053                 1.0952
 IR Inten    --     16.0344                 4.4088                13.1237

                     31                     32                     33
                      A                      A                      A
 Frequencies --   1028.9374              1042.0839              1055.5071
 Red. masses --      2.0577                 2.5551                 1.8457
 Frc consts  --      1.2835                 1.6348                 1.2115
 IR Inten    --     25.8611                56.0651                21.7137

                     34                     35                     36
                      A                      A                      A
 Frequencies --   1062.6908              1071.3728              1078.1631
 Red. masses --      2.1918                 1.9417                 1.5511
 Frc consts  --      1.4584                 1.3132                 1.0623
 IR Inten    --    145.4341               137.3914                50.2574

                     37                     38                     39
                      A                      A                      A
 Frequencies --   1104.7045              1147.4304              1156.4386
 Red. masses --      1.6514                 2.6978                 2.1857
 Frc consts  --      1.1874                 2.0928                 1.7222
 IR Inten    --     52.6006               150.9149                67.9238

                     40                     41                     42
                      A                      A                      A
 Frequencies --   1172.0054              1199.7757              1214.7277
 Red. masses --      2.6313                 2.0051                 1.4153
 Frc consts  --      2.1295                 1.7005                 1.2304
 IR Inten    --    111.2530                61.2945                30.0761

                     43                     44                     45
                      A                      A                      A
 Frequencies --   1230.3647              1243.0893              1268.6726
 Red. masses --      1.4065                 1.7502                 2.3621
 Frc consts  --      1.2544                 1.5934                 2.2400
 IR Inten    --     46.8599                50.6047               157.0268

                     46                     47                     48
                      A                      A                      A
 Frequencies --   1287.5045              1301.7275              1323.0000
 Red. masses --      1.2266                 1.1643                 1.1925
 Frc consts  --      1.1979                 1.1624                 1.2298
 IR Inten    --     54.6125                14.2251                30.2720

                     49                     50                     51
                      A                      A                      A
 Frequencies --   1337.4699              1356.9831              1366.0497
 Red. masses --      1.2072                 1.4276                 1.5634
 Frc consts  --      1.2724                 1.5488                 1.7189
 IR Inten    --     17.9832                 4.7283                 4.2050

                     52                     53                     54
                      A                      A                      A
 Frequencies --   1367.3070              1378.1859              1389.7038
 Red. masses --      1.3573                 1.3449                 1.6766
 Frc consts  --      1.4950                 1.5051                 1.9078
 IR Inten    --      1.6600                16.7443                16.8947

                     55                     56                     57
                      A                      A                      A
 Frequencies --   1392.3994              1399.4353              1407.5390
 Red. masses --      1.5679                 1.2723                 1.3550
 Frc consts  --      1.7910                 1.4681                 1.5816
 IR Inten    --      6.4827                18.4212                 4.1033

                     58                     59                     60
                      A                      A                      A
 Frequencies --   1412.9353              1421.8690              1437.7711
 Red. masses --      1.3783                 1.3092                 1.3448
 Frc consts  --      1.6212                 1.5595                 1.6379
 IR Inten    --      9.5020                 8.5142                12.8763

                     61                     62                     63
                      A                      A                      A
 Frequencies --   1449.7727              1469.1192              1472.4740
 Red. masses --      1.4703                 1.0940                 1.0986
 Frc consts  --      1.8208                 1.3911                 1.4034
 IR Inten    --     28.3138                 8.7543                 4.9399

                     64                     65                     66
                      A                      A                      A
 Frequencies --   1479.6917              1484.8090              1491.1125
 Red. masses --      1.1187                 1.0932                 1.0904
 Frc consts  --      1.4431                 1.4201                 1.4285
 IR Inten    --     14.8094                 9.6158                 5.5778

                     67                     68                     69
                      A                      A                      A
 Frequencies --   1494.2775              1501.9882              1505.4572
 Red. masses --      1.1191                 1.1012                 1.1002
 Frc consts  --      1.4723                 1.4637                 1.4691
 IR Inten    --     28.8926                 5.8672                 6.6982

                     70                     71                     72
                      A                      A                      A
 Frequencies --   3029.5970              3037.4910              3058.7496
 Red. masses --      1.0699                 1.0682                 1.0690
 Frc consts  --      5.7857                 5.8065                 5.8925
 IR Inten    --     77.9141                63.1757                47.7730

                     73                     74                     75
                      A                      A                      A
 Frequencies --   3067.9553              3072.0703              3073.5587
 Red. masses --      1.0639                 1.0625                 1.0626
 Frc consts  --      5.8998                 5.9080                 5.9144
 IR Inten    --     35.1394                58.5866                11.4011

                     76                     77                     78
                      A                      A                      A
 Frequencies --   3079.9502              3081.2040              3096.9611
 Red. masses --      1.0615                 1.0674                 1.0854
 Frc consts  --      5.9330                 5.9708                 6.1335
 IR Inten    --     28.3111                 8.3474                94.1674

                     79                     80                     81
                      A                      A                      A
 Frequencies --   3117.0065              3117.3810              3122.2762
 Red. masses --      1.1007                 1.0991                 1.1031
 Frc consts  --      6.3008                 6.2930                 6.3359
 IR Inten    --     37.6117                37.8842                70.5753

                     82                     83                     84
                      A                      A                      A
 Frequencies --   3126.2418              3130.6008              3134.9839
 Red. masses --      1.1036                 1.0973                 1.0944
 Frc consts  --      6.3551                 6.3363                 6.3374
 IR Inten    --     60.6410                52.1323                12.8300

                     85                     86                     87
                      A                      A                      A
 Frequencies --   3136.1771              3142.3497              3144.5967
 Red. masses --      1.0966                 1.0984                 1.0865
 Frc consts  --      6.3545                 6.3905                 6.3299
 IR Inten    --     54.8218                46.0422                30.1143

 - Thermochemistry -
 -------------------
 Temperature   298.150 Kelvin.  Pressure   1.00000 Atm.
 Atom     1 has atomic number  6 and mass  12.00000

 Molecular mass:   186.12559 amu.
 Principal axes and moments of inertia in atomic units:
                           1         2         3
     Eigenvalues --  1034.921773916.683314067.88558
           X            0.99995  -0.00921  -0.00286
           Y            0.00921   0.99995  -0.00278
           Z            0.00289   0.00276   0.99999
 This molecule is an asymmetric top.
 Rotational symmetry number  1.
 Warning -- assumption of classical behavior for rotation
           may cause significant error
 Rotational temperatures (Kelvin)      0.08369     0.02211     0.02129
 Rotational constants (GHZ):           1.74384     0.46078     0.44366
    1 imaginary frequencies ignored.
 Zero-point vibrational energy     738385.9 (Joules/Mol)
                                  176.47847 (Kcal/Mol)
 Warning -- explicit consideration of  16 degrees of freedom as
           vibrations may cause significant error
 Vibrational temperatures:     79.77   144.13   224.71   270.72   311.75
          (Kelvin)            371.58   419.41   502.09   555.00   584.63
                              628.59   631.60   718.17   752.70   767.46
                              793.74   984.91  1076.50  1174.70  1212.06
                             1228.97  1251.59  1258.60  1296.53  1302.61
                             1306.69  1351.32  1364.23  1426.53  1480.41
                             1499.33  1518.64  1528.98  1541.47  1551.24
                             1589.42  1650.90  1663.86  1686.25  1726.21
                             1747.72  1770.22  1788.53  1825.34  1852.43
                             1872.90  1903.50  1924.32  1952.40  1965.44
                             1967.25  1982.90  1999.47  2003.35  2013.48
                             2025.13  2032.90  2045.75  2068.63  2085.90
                             2113.73  2118.56  2128.95  2136.31  2145.38
                             2149.93  2161.03  2166.02  4358.91  4370.27
                             4400.86  4414.10  4420.02  4422.17  4431.36
                             4433.17  4455.84  4484.68  4485.22  4492.26
                             4497.96  4504.24  4510.54  4512.26  4521.14
                             4524.37

 Zero-point correction=                           0.281236 (Hartree/Particle)
 Thermal correction to Energy=                    0.291976
 Thermal correction to Enthalpy=                  0.292921
 Thermal correction to Gibbs Free Energy=         0.244749
 Sum of electronic and zero-point Energies=           -617.220022
 Sum of electronic and thermal Energies=              -617.209282
 Sum of electronic and thermal Enthalpies=            -617.208338
 Sum of electronic and thermal Free Energies=         -617.256510

                     E (Thermal)             CV                S
                      KCal/Mol        Cal/Mol-Kelvin    Cal/Mol-Kelvin
 Total                  183.218             44.471            101.386
 Electronic               0.000              0.000              0.000
 Translational            0.889              2.981             41.570
 Rotational               0.889              2.981             31.178
 Vibrational            181.441             38.510             28.638
 Vibration     1          0.596              1.975              4.613
 Vibration     2          0.604              1.949              3.451
 Vibration     3          0.620              1.896              2.596
 Vibration     4          0.633              1.856              2.246
 Vibration     5          0.646              1.816              1.987
 Vibration     6          0.667              1.749              1.674
 Vibration     7          0.687              1.690              1.465
 Vibration     8          0.726              1.577              1.171
 Vibration     9          0.754              1.501              1.017
 Vibration    10          0.771              1.456              0.940
 Vibration    11          0.797              1.390              0.836
 Vibration    12          0.799              1.385              0.830
 Vibration    13          0.855              1.252              0.660
 Vibration    14          0.878              1.199              0.603
 Vibration    15          0.888              1.176              0.580
 Vibration    16          0.907              1.136              0.541

 Optimization completed.
    -- Stationary point found.
 Normal termination of Gaussian 16 at Fri Mar  8 17:33:07 2019.
