 Gaussian 16, Revision B.01,
 Gaussian 16:  ES64L-G16RevB.01 20-Dec-2017

 ----------------------------------------------------------------------
 #M062X/6-311++G(2d,2p) opt=ModRedundant freq=noraman SCRF=(SMD,solvent
 =water)
 ----------------------------------------------------------------------

 -------------------------------
 4c1_a1_a4_4c1_PHI.inp_extract_9
 -------------------------------
 Symbolic Z-matrix:
 Charge =  0 Multiplicity = 1

 SCF Done:  E(RM062X) =  -617.501670643     A.U. after   12 cycles
 SCF Done:  E(RM062X) =  -617.503401775     A.U. after   10 cycles
 SCF Done:  E(RM062X) =  -617.503696980     A.U. after   10 cycles
 SCF Done:  E(RM062X) =  -617.503834833     A.U. after    9 cycles
 SCF Done:  E(RM062X) =  -617.503855045     A.U. after    9 cycles
 SCF Done:  E(RM062X) =  -617.503856342     A.U. after    8 cycles
 Optimization completed.
    -- Stationary point found.
 Normal termination of Gaussian 16 at Fri Mar  8 16:15:45 2019.

 ----------------------------------------------------------------------
 #N Geom=AllCheck Guess=TCheck SCRF=Check GenChk RM062X/6-311++G(2d,2p)
  Freq
 ----------------------------------------------------------------------

 Structure from the checkpoint file:  "4c1_a1_a4_4c1_PHI.inp_extract_9.chk"
 -------------------------------
 4c1_a1_a4_4c1_PHI.inp_extract_9
 -------------------------------
 Charge =  0 Multiplicity = 1

                         Standard orientation:
 ---------------------------------------------------------------------
 Center     Atomic      Atomic             Coordinates (Angstroms)
 Number     Number       Type             X           Y           Z
 ---------------------------------------------------------------------
      1          6           0        1.728355    1.325790    0.132295
      2          6           0       -1.012774    0.447970   -0.866703
      3          6           0        0.858294    0.211368    0.700618
      4          6           0       -3.443084   -0.372993    0.476411
      5          6           0        3.511755   -0.135308   -0.344231
      6          8           0        2.615065    0.844561   -0.867470
      7          6           0       -2.493332    0.598115    1.172010
      8          6           0       -2.660057   -1.243166   -0.486601
      9          6           0       -1.710271    1.377771    0.118304
     10          6           0        2.757418   -1.347897    0.170987
     11          8           0       -1.935189   -0.452207   -1.438351
     12          8           0        0.019121   -0.353255   -0.305852
     13          6           0        1.737513   -0.916666    1.223860
     14          1           0        2.299209    1.777736    0.951290
     15          1           0        1.125337    2.101215   -0.337349
     16          1           0       -0.607579    1.014802   -1.706747
     17          1           0        0.258648    0.616984    1.516003
     18          1           0       -4.202319    0.183843   -0.077753
     19          1           0       -3.955389   -1.011346    1.196690
     20          1           0        4.184918   -0.397889   -1.157530
     21          1           0        4.098165    0.318387    0.463308
     22          1           0       -1.809456    0.034785    1.811867
     23          1           0       -3.042082    1.287538    1.812617
     24          1           0       -3.314045   -1.876756   -1.081321
     25          1           0       -1.962479   -1.882676    0.058969
     26          1           0       -2.401193    1.977592   -0.477419
     27          1           0       -0.998830    2.069051    0.566408
     28          1           0        3.466578   -2.059603    0.594030
     29          1           0        2.255960   -1.838123   -0.664853
     30          1           0        1.109154   -1.751230    1.535093
     31          1           0        2.260534   -0.547005    2.108392
 ---------------------------------------------------------------------

 SCF Done:  E(RM062X) =  -617.503856342     A.U. after    1 cycles

 The electronic state is 1-A.
 Alpha  occ. eigenvalues --  -19.63199 -19.62921 -19.62893 -10.63390 -10.58361
 Alpha  occ. eigenvalues --  -10.57472 -10.57303 -10.57275 -10.52614 -10.52570
 Alpha  occ. eigenvalues --  -10.52492 -10.52262 -10.52222  -1.19686  -1.16209
 Alpha  occ. eigenvalues --   -1.12957  -0.89940  -0.89657  -0.86300  -0.84682
 Alpha  occ. eigenvalues --   -0.74386  -0.73669  -0.72559  -0.70529  -0.65916
 Alpha  occ. eigenvalues --   -0.61593  -0.59401  -0.58389  -0.57068  -0.55461
 Alpha  occ. eigenvalues --   -0.54267  -0.52959  -0.51425  -0.49714  -0.49215
 Alpha  occ. eigenvalues --   -0.47682  -0.47031  -0.45782  -0.45511  -0.44904
 Alpha  occ. eigenvalues --   -0.43242  -0.42388  -0.40071  -0.39201  -0.38941
 Alpha  occ. eigenvalues --   -0.37932  -0.37335  -0.36704  -0.34976  -0.32870
 Alpha  occ. eigenvalues --   -0.31542
 Alpha virt. eigenvalues --    0.00324   0.01307   0.01466   0.01498   0.02733
 Alpha virt. eigenvalues --    0.02960   0.03168   0.03775   0.03944   0.05079
 Alpha virt. eigenvalues --    0.05148   0.05364   0.05955   0.06481   0.07601

 Mulliken charges:
               1
     1  C   -0.478203
     2  C   -0.063421
     3  C    0.145004
     4  C   -0.386952
     5  C   -0.169471
     6  O   -0.344825
     7  C   -0.250743
     8  C   -0.229644
     9  C   -0.298703
    10  C   -0.284362
    11  O   -0.326372
    12  O   -0.394555
    13  C   -0.524093
    14  H    0.198168
    15  H    0.214604
    16  H    0.302566
    17  H    0.240221
    18  H    0.172555
    19  H    0.176436
    20  H    0.213855
    21  H    0.153313
    22  H    0.168263
    23  H    0.192622
    24  H    0.225517
    25  H    0.168037
    26  H    0.226110
    27  H    0.198396
    28  H    0.187084
    29  H    0.172352
    30  H    0.175496
    31  H    0.220744
 Sum of Mulliken charges =  -0.00000

 Dipole moment (field-independent basis, Debye):
    X=             -0.2649    Y=              1.1685    Z=              5.3163  Tot=              5.4497
 Quadrupole moment (field-independent basis, Debye-Ang):
   XX=            -72.1435   YY=            -76.7273   ZZ=            -84.4568
   XY=             -3.5509   XZ=              1.7114   YZ=              0.1183

  Exact polarizability: 181.685  -0.034 172.485   1.154   0.114 168.934
 Approx polarizability: 145.535  -0.271 142.248   1.821  -0.032 142.513

                      1                      2                      3
                      A                      A                      A
 Frequencies --     45.3806                55.4482               106.9059
 Red. masses --      4.0707                 3.8918                 3.3141
 Frc consts  --      0.0049                 0.0070                 0.0223
 IR Inten    --      1.9980                 0.5415                 0.9193

                      4                      5                      6
                      A                      A                      A
 Frequencies --    134.8903               192.8911               214.5700
 Red. masses --      3.8514                 2.8178                 3.3340
 Frc consts  --      0.0413                 0.0618                 0.0904
 IR Inten    --      1.3923                 8.1133                 6.1791

                      7                      8                      9
                      A                      A                      A
 Frequencies --    259.6126               291.2294               350.0696
 Red. masses --      2.3665                 2.6225                 2.3138
 Frc consts  --      0.0940                 0.1311                 0.1671
 IR Inten    --      1.1136                 4.1804                 9.1072

                     10                     11                     12
                      A                      A                      A
 Frequencies --    381.4985               409.6282               437.5074
 Red. masses --      2.2865                 2.7585                 2.2428
 Frc consts  --      0.1961                 0.2727                 0.2529
 IR Inten    --      2.2119                19.6695                 5.5494

                     13                     14                     15
                      A                      A                      A
 Frequencies --    440.8496               502.5045               522.1435
 Red. masses --      2.7513                 3.4402                 2.7330
 Frc consts  --      0.3150                 0.5118                 0.4390
 IR Inten    --      3.8465                10.5628                 3.2121

                     16                     17                     18
                      A                      A                      A
 Frequencies --    537.0307               552.1294               684.7442
 Red. masses --      2.5287                 2.1945                 2.5557
 Frc consts  --      0.4297                 0.3942                 0.7060
 IR Inten    --      1.2169                 5.7845                 5.8086

                     19                     20                     21
                      A                      A                      A
 Frequencies --    746.6987               825.2276               843.9781
 Red. masses --      2.5220                 2.0171                 2.6855
 Frc consts  --      0.8285                 0.8093                 1.1270
 IR Inten    --     14.9739                 0.9525                 6.5167

                     22                     23                     24
                      A                      A                      A
 Frequencies --    850.4926               872.3182               874.8660
 Red. masses --      2.9296                 2.0276                 1.9029
 Frc consts  --      1.2485                 0.9090                 0.8581
 IR Inten    --      4.3674                27.3840                24.7184

                     25                     26                     27
                      A                      A                      A
 Frequencies --    897.6386               905.9835               910.2570
 Red. masses --      2.3082                 2.1365                 2.5789
 Frc consts  --      1.0958                 1.0332                 1.2589
 IR Inten    --      9.6006                74.4460                25.9472

                     28                     29                     30
                      A                      A                      A
 Frequencies --    937.3411               948.8591               996.0035
 Red. masses --      1.7339                 1.8692                 1.9116
 Frc consts  --      0.8976                 0.9916                 1.1173
 IR Inten    --     21.8648                10.5174                16.5263

                     31                     32                     33
                      A                      A                      A
 Frequencies --   1030.1814              1040.0411              1056.1666
 Red. masses --      2.0479                 2.5537                 1.8368
 Frc consts  --      1.2805                 1.6275                 1.2072
 IR Inten    --     24.7643                51.3885                 6.4915

                     34                     35                     36
                      A                      A                      A
 Frequencies --   1062.7777              1067.0658              1075.6728
 Red. masses --      2.1694                 1.9349                 1.5856
 Frc consts  --      1.4437                 1.2980                 1.0809
 IR Inten    --    144.1468               117.7426                47.1453

                     37                     38                     39
                      A                      A                      A
 Frequencies --   1106.0313              1150.1846              1156.1040
 Red. masses --      1.6174                 2.5939                 2.3614
 Frc consts  --      1.1658                 2.0218                 1.8596
 IR Inten    --     46.1270               115.3475               138.6169

                     40                     41                     42
                      A                      A                      A
 Frequencies --   1172.8254              1196.6653              1212.1211
 Red. masses --      2.5618                 1.8377                 1.4430
 Frc consts  --      2.0762                 1.5505                 1.2491
 IR Inten    --     80.8324                48.2786                21.7973

                     43                     44                     45
                      A                      A                      A
 Frequencies --   1230.2986              1244.5188              1273.2633
 Red. masses --      1.3947                 1.7630                 1.8967
 Frc consts  --      1.2438                 1.6088                 1.8117
 IR Inten    --     44.1815                48.1677               119.5326

                     46                     47                     48
                      A                      A                      A
 Frequencies --   1284.7453              1300.4422              1320.4722
 Red. masses --      1.3635                 1.1728                 1.2019
 Frc consts  --      1.3260                 1.1685                 1.2348
 IR Inten    --    106.4161                15.3242                32.5128

                     49                     50                     51
                      A                      A                      A
 Frequencies --   1337.2710              1354.4705              1367.2235
 Red. masses --      1.2046                 1.3496                 1.3143
 Frc consts  --      1.2692                 1.4588                 1.4475
 IR Inten    --     18.3734                10.0305                 1.2892

                     52                     53                     54
                      A                      A                      A
 Frequencies --   1368.2829              1375.2176              1384.9365
 Red. masses --      1.7651                 1.2754                 1.5878
 Frc consts  --      1.9471                 1.4211                 1.7943
 IR Inten    --      3.3407                26.4022                11.7291

                     55                     56                     57
                      A                      A                      A
 Frequencies --   1389.9028              1394.3724              1404.9238
 Red. masses --      1.6486                 1.3818                 1.3461
 Frc consts  --      1.8765                 1.5829                 1.5654
 IR Inten    --     20.1966                13.9646                 3.5040

                     58                     59                     60
                      A                      A                      A
 Frequencies --   1409.1444              1416.6841              1433.9364
 Red. masses --      1.4119                 1.3509                 1.3571
 Frc consts  --      1.6518                 1.5974                 1.6440
 IR Inten    --      3.2084                 6.4123                 9.4812

                     61                     62                     63
                      A                      A                      A
 Frequencies --   1451.6465              1469.5273              1472.1104
 Red. masses --      1.5321                 1.0916                 1.0951
 Frc consts  --      1.9022                 1.3888                 1.3983
 IR Inten    --     36.4042                 8.3485                 5.9865

                     64                     65                     66
                      A                      A                      A
 Frequencies --   1479.8656              1482.9507              1491.8680
 Red. masses --      1.1177                 1.1109                 1.0924
 Frc consts  --      1.4422                 1.4394                 1.4325
 IR Inten    --     13.6476                14.0235                 1.5235

                     67                     68                     69
                      A                      A                      A
 Frequencies --   1494.0134              1503.4869              1506.5817
 Red. masses --      1.1097                 1.1007                 1.1063
 Frc consts  --      1.4593                 1.4659                 1.4795
 IR Inten    --     32.2171                 6.8930                10.1279

                     70                     71                     72
                      A                      A                      A
 Frequencies --   3030.8587              3040.0812              3062.2068
 Red. masses --      1.0699                 1.0688                 1.0685
 Frc consts  --      5.7908                 5.8199                 5.9032
 IR Inten    --     77.1977                57.5304                22.7834

                     73                     74                     75
                      A                      A                      A
 Frequencies --   3066.7246              3072.3571              3074.5102
 Red. masses --      1.0637                 1.0636                 1.0625
 Frc consts  --      5.8939                 5.9155                 5.9173
 IR Inten    --     39.2653                71.7043                16.9727

                     76                     77                     78
                      A                      A                      A
 Frequencies --   3080.4135              3080.6130              3090.2078
 Red. masses --      1.0613                 1.0720                 1.0807
 Frc consts  --      5.9335                 5.9939                 6.0803
 IR Inten    --     29.9019                 4.8537               104.0602

                     79                     80                     81
                      A                      A                      A
 Frequencies --   3103.9172              3117.7422              3118.9257
 Red. masses --      1.0847                 1.0970                 1.1015
 Frc consts  --      6.1573                 6.2825                 6.3133
 IR Inten    --     46.2543                31.0225                41.4913

                     82                     83                     84
                      A                      A                      A
 Frequencies --   3121.2500              3126.7495              3132.4345
 Red. masses --      1.1023                 1.1041                 1.0969
 Frc consts  --      6.3270                 6.3600                 6.3414
 IR Inten    --     62.2809                60.3894                54.3530

                     85                     86                     87
                      A                      A                      A
 Frequencies --   3137.5442              3138.4589              3142.7180
 Red. masses --      1.0965                 1.0967                 1.1005
 Frc consts  --      6.3597                 6.3643                 6.4043
 IR Inten    --     52.7020                17.0449                40.1839

 - Thermochemistry -
 -------------------
 Temperature   298.150 Kelvin.  Pressure   1.00000 Atm.
 Atom     1 has atomic number  6 and mass  12.00000

 Molecular mass:   186.12559 amu.
 Principal axes and moments of inertia in atomic units:
                           1         2         3
     Eigenvalues --  1025.951053930.310374036.82900
           X            0.99997  -0.00787  -0.00228
           Y            0.00789   0.99992   0.00945
           Z            0.00220  -0.00947   0.99995
 This molecule is an asymmetric top.
 Rotational symmetry number  1.
 Warning -- assumption of classical behavior for rotation
           may cause significant error
 Rotational temperatures (Kelvin)      0.08442     0.02204     0.02146
 Rotational constants (GHZ):           1.75909     0.45919     0.44707
 Zero-point vibrational energy     738301.7 (Joules/Mol)
                                  176.45834 (Kcal/Mol)
 Warning -- explicit consideration of  17 degrees of freedom as
           vibrations may cause significant error
 Vibrational temperatures:     65.29    79.78   153.81   194.08   277.53
          (Kelvin)            308.72   373.52   419.01   503.67   548.89
                              589.36   629.48   634.28   722.99   751.25
                              772.67   794.39   985.19  1074.33  1187.32
                             1214.30  1223.67  1255.07  1258.74  1291.50
                             1303.51  1309.66  1348.62  1365.20  1433.03
                             1482.20  1496.39  1519.59  1529.10  1535.27
                             1547.65  1591.33  1654.86  1663.38  1687.43
                             1721.73  1743.97  1770.13  1790.58  1831.94
                             1848.46  1871.05  1899.86  1924.03  1948.78
                             1967.13  1968.65  1978.63  1992.61  1999.76
                             2006.19  2021.37  2027.44  2038.29  2063.11
                             2088.60  2114.32  2118.04  2129.20  2133.64
                             2146.47  2149.55  2163.18  2167.64  4360.73
                             4374.00  4405.83  4412.33  4420.44  4423.53
                             4432.03  4432.32  4446.12  4465.84  4485.74
                             4487.44  4490.78  4498.70  4506.87  4514.23
                             4515.54  4521.67

 Zero-point correction=                           0.281204 (Hartree/Particle)
 Thermal correction to Energy=                    0.292800
 Thermal correction to Enthalpy=                  0.293744
 Thermal correction to Gibbs Free Energy=         0.243155
 Sum of electronic and zero-point Energies=           -617.222652
 Sum of electronic and thermal Energies=              -617.211056
 Sum of electronic and thermal Enthalpies=            -617.210112
 Sum of electronic and thermal Free Energies=         -617.260701

                     E (Thermal)             CV                S
                      KCal/Mol        Cal/Mol-Kelvin    Cal/Mol-Kelvin
 Total                  183.735             46.446            106.475
 Electronic               0.000              0.000              0.000
 Translational            0.889              2.981             41.570
 Rotational               0.889              2.981             31.166
 Vibrational            181.957             40.484             33.739
 Vibration     1          0.595              1.979              5.009
 Vibration     2          0.596              1.975              4.613
 Vibration     3          0.606              1.944              3.324
 Vibration     4          0.613              1.918              2.875
 Vibration     5          0.635              1.850              2.200
 Vibration     6          0.644              1.819              2.004
 Vibration     7          0.668              1.746              1.664
 Vibration     8          0.687              1.690              1.467
 Vibration     9          0.727              1.575              1.166
 Vibration    10          0.751              1.510              1.033
 Vibration    11          0.774              1.449              0.928
 Vibration    12          0.798              1.388              0.834
 Vibration    13          0.801              1.381              0.824
 Vibration    14          0.858              1.244              0.652
 Vibration    15          0.877              1.201              0.605
 Vibration    16          0.892              1.168              0.572
 Vibration    17          0.907              1.135              0.540

 Optimization completed.
    -- Stationary point found.
 Normal termination of Gaussian 16 at Fri Mar  8 17:22:07 2019.
