 Gaussian 16, Revision B.01,
 Gaussian 16:  ES64L-G16RevB.01 20-Dec-2017

 ----------------------------------------------------------------------
 #M062X/6-311++G(2d,2p) opt=ModRedundant freq=noraman SCRF=(SMD,solvent
 =water)
 ----------------------------------------------------------------------

 --------------------------------
 4c1_a1_a4_4c1_PHI.inp_extract_15
 --------------------------------
 Symbolic Z-matrix:
 Charge =  0 Multiplicity = 1

 SCF Done:  E(RM062X) =  -617.495421014     A.U. after   13 cycles
 SCF Done:  E(RM062X) =  -617.495318151     A.U. after   11 cycles
 SCF Done:  E(RM062X) =  -617.497310211     A.U. after   10 cycles
 SCF Done:  E(RM062X) =  -617.497765501     A.U. after   10 cycles
 SCF Done:  E(RM062X) =  -617.497807834     A.U. after    9 cycles
 SCF Done:  E(RM062X) =  -617.497816444     A.U. after    8 cycles
 SCF Done:  E(RM062X) =  -617.497819898     A.U. after    8 cycles
 SCF Done:  E(RM062X) =  -617.497821382     A.U. after    8 cycles
 Optimization completed.
    -- Stationary point found.
 Normal termination of Gaussian 16 at Fri Mar  8 18:13:33 2019.

 ----------------------------------------------------------------------
 #N Geom=AllCheck Guess=TCheck SCRF=Check GenChk RM062X/6-311++G(2d,2p)
  Freq
 ----------------------------------------------------------------------

 Structure from the checkpoint file:  "4c1_a1_a4_4c1_PHI.inp_extract_15.chk"
 --------------------------------
 4c1_a1_a4_4c1_PHI.inp_extract_15
 --------------------------------
 Charge =  0 Multiplicity = 1

                         Standard orientation:
 ---------------------------------------------------------------------
 Center     Atomic      Atomic             Coordinates (Angstroms)
 Number     Number       Type             X           Y           Z
 ---------------------------------------------------------------------
      1          6           0        1.741068   -1.278774   -0.638385
      2          6           0       -1.159471   -0.246898    1.183550
      3          6           0        0.703045   -0.193354   -0.408267
      4          6           0       -3.277982    0.374819   -0.734078
      5          6           0        3.536376    0.140938   -0.096177
      6          8           0        2.886610   -1.099216    0.183082
      7          6           0       -2.652759   -1.011541   -0.816225
      8          6           0       -2.219734    1.371156   -0.312601
      9          6           0       -1.988001   -1.355408    0.518642
     10          6           0        2.616888    1.314788    0.189716
     11          8           0       -1.673504    1.053749    0.974988
     12          8           0        0.230222   -0.315366    0.938103
     13          6           0        1.328476    1.183239   -0.621807
     14          1           0        2.038247   -1.271201   -1.692920
     15          1           0        1.326377   -2.254589   -0.391882
     16          1           0       -1.211156   -0.385486    2.261390
     17          1           0       -0.108396   -0.359801   -1.113367
     18          1           0       -4.088460    0.381299   -0.001202
     19          1           0       -3.691986    0.679756   -1.695223
     20          1           0        4.425900    0.167178    0.529692
     21          1           0        3.847000    0.148545   -1.147533
     22          1           0       -1.936410   -1.035836   -1.638051
     23          1           0       -3.408657   -1.765013   -1.036321
     24          1           0       -2.633191    2.371267   -0.200872
     25          1           0       -1.424653    1.417954   -1.061223
     26          1           0       -2.781153   -1.594330    1.229349
     27          1           0       -1.356485   -2.239922    0.436860
     28          1           0        3.131479    2.244037   -0.055214
     29          1           0        2.388863    1.335351    1.256846
     30          1           0        0.615447    1.961219   -0.350189
     31          1           0        1.553175    1.292437   -1.685733
 ---------------------------------------------------------------------

 SCF Done:  E(RM062X) =  -617.497821382     A.U. after    1 cycles

 The electronic state is 1-A.
 Alpha  occ. eigenvalues --  -19.63182 -19.62900 -19.62751 -10.63482 -10.58239
 Alpha  occ. eigenvalues --  -10.57491 -10.57474 -10.57290 -10.52763 -10.52523
 Alpha  occ. eigenvalues --  -10.52474 -10.52289 -10.52251  -1.19244  -1.16173
 Alpha  occ. eigenvalues --   -1.13004  -0.90067  -0.89746  -0.86761  -0.84115
 Alpha  occ. eigenvalues --   -0.74295  -0.73503  -0.73256  -0.70724  -0.65726
 Alpha  occ. eigenvalues --   -0.62328  -0.59037  -0.57759  -0.56657  -0.54969
 Alpha  occ. eigenvalues --   -0.53949  -0.52410  -0.51984  -0.50492  -0.49864
 Alpha  occ. eigenvalues --   -0.49161  -0.46169  -0.45541  -0.45302  -0.44530
 Alpha  occ. eigenvalues --   -0.42563  -0.42037  -0.41449  -0.39324  -0.39018
 Alpha  occ. eigenvalues --   -0.37888  -0.36552  -0.36258  -0.34793  -0.33401
 Alpha  occ. eigenvalues --   -0.31496
 Alpha virt. eigenvalues --    0.00275   0.01178   0.01369   0.01642   0.02761
 Alpha virt. eigenvalues --    0.03086   0.03157   0.03684   0.04080   0.05061
 Alpha virt. eigenvalues --    0.05298   0.05438   0.06137   0.06372   0.07840

 Mulliken charges:
               1
     1  C   -0.529593
     2  C   -0.131888
     3  C    0.222593
     4  C   -0.379905
     5  C   -0.221336
     6  O   -0.372691
     7  C   -0.300059
     8  C   -0.219608
     9  C   -0.263086
    10  C   -0.317795
    11  O   -0.349576
    12  O   -0.346422
    13  C   -0.414713
    14  H    0.204755
    15  H    0.214887
    16  H    0.265275
    17  H    0.247530
    18  H    0.176661
    19  H    0.177254
    20  H    0.210326
    21  H    0.152418
    22  H    0.186830
    23  H    0.201608
    24  H    0.234836
    25  H    0.167093
    26  H    0.220360
    27  H    0.183143
    28  H    0.189005
    29  H    0.180242
    30  H    0.169814
    31  H    0.242040
 Sum of Mulliken charges =  -0.00000

 Dipole moment (field-independent basis, Debye):
    X=             -2.4612    Y=              0.3956    Z=             -4.8512  Tot=              5.4542
 Quadrupole moment (field-independent basis, Debye-Ang):
   XX=            -75.7925   YY=            -80.3677   ZZ=            -80.1662
   XY=              9.0992   XZ=             -2.3135   YZ=             -1.6075

  Exact polarizability: 180.733   1.067 172.148   1.009  -1.684 169.742
 Approx polarizability: 145.213   0.283 141.359   0.382  -1.558 143.702

                      1                      2                      3
                      A                      A                      A
 Frequencies --     44.0191                56.0848                92.4651
 Red. masses --      3.8097                 3.8309                 3.3737
 Frc consts  --      0.0043                 0.0071                 0.0170
 IR Inten    --      0.7534                 6.2165                 0.5269

                      4                      5                      6
                      A                      A                      A
 Frequencies --    130.0978               178.5483               201.5396
 Red. masses --      3.5184                 3.9883                 2.7211
 Frc consts  --      0.0351                 0.0749                 0.0651
 IR Inten    --      2.0758                 3.8374                 6.7923

                      7                      8                      9
                      A                      A                      A
 Frequencies --    223.4360               299.9951               341.1480
 Red. masses --      2.6126                 2.3356                 1.7700
 Frc consts  --      0.0768                 0.1238                 0.1214
 IR Inten    --      3.0806                 2.8259                 0.6042

                     10                     11                     12
                      A                      A                      A
 Frequencies --    363.9745               417.3666               425.8147
 Red. masses --      2.3056                 2.9129                 2.1812
 Frc consts  --      0.1800                 0.2990                 0.2330
 IR Inten    --      9.4932                 2.7191                12.8595

                     13                     14                     15
                      A                      A                      A
 Frequencies --    442.7491               469.7074               517.5314
 Red. masses --      3.2243                 3.9214                 2.4434
 Frc consts  --      0.3724                 0.5097                 0.3856
 IR Inten    --      4.7911                 4.6433                 3.9520

                     16                     17                     18
                      A                      A                      A
 Frequencies --    527.7917               575.3699               682.9793
 Red. masses --      2.7645                 2.7060                 2.6070
 Frc consts  --      0.4537                 0.5278                 0.7165
 IR Inten    --     14.7765                21.4805                 8.9571

                     19                     20                     21
                      A                      A                      A
 Frequencies --    750.4640               788.6820               832.2915
 Red. masses --      2.8742                 2.3364                 2.1010
 Frc consts  --      0.9537                 0.8562                 0.8575
 IR Inten    --      6.1621                 3.4092                13.1492

                     22                     23                     24
                      A                      A                      A
 Frequencies --    859.5225               861.7547               878.5466
 Red. masses --      2.2808                 2.8536                 1.7283
 Frc consts  --      0.9928                 1.2486                 0.7860
 IR Inten    --     10.6477                 5.7743                10.7109

                     25                     26                     27
                      A                      A                      A
 Frequencies --    898.4429               906.3187               910.5944
 Red. masses --      2.5304                 2.4567                 1.9644
 Frc consts  --      1.2034                 1.1889                 0.9597
 IR Inten    --     41.7007                61.7225                33.2805

                     28                     29                     30
                      A                      A                      A
 Frequencies --    932.4223               946.8277               994.1509
 Red. masses --      1.9468                 1.7198                 1.9853
 Frc consts  --      0.9972                 0.9084                 1.1560
 IR Inten    --      8.2916                 4.9759                26.8771

                     31                     32                     33
                      A                      A                      A
 Frequencies --   1023.3592              1044.2153              1059.8095
 Red. masses --      2.1092                 2.4088                 1.8616
 Frc consts  --      1.3014                 1.5475                 1.2320
 IR Inten    --     11.7087                 6.2924                32.2993

                     34                     35                     36
                      A                      A                      A
 Frequencies --   1067.9771              1083.0937              1095.9175
 Red. masses --      1.8156                 1.5471                 1.5381
 Frc consts  --      1.2201                 1.0693                 1.0884
 IR Inten    --     25.8769                29.4527                26.2436

                     37                     38                     39
                      A                      A                      A
 Frequencies --   1107.8649              1145.9726              1161.4316
 Red. masses --      2.0642                 2.6794                 2.2367
 Frc consts  --      1.4927                 2.0732                 1.7777
 IR Inten    --    211.9556               107.9723                26.0116

                     40                     41                     42
                      A                      A                      A
 Frequencies --   1170.6700              1196.7453              1223.5151
 Red. masses --      2.6935                 1.8315                 1.3668
 Frc consts  --      2.1749                 1.5454                 1.2055
 IR Inten    --    169.1705                87.7015                30.8265

                     43                     44                     45
                      A                      A                      A
 Frequencies --   1228.9158              1240.8276              1256.9469
 Red. masses --      1.9214                 1.8237                 2.1442
 Frc consts  --      1.7096                 1.6543                 1.9959
 IR Inten    --    204.7109                29.8978               161.0797

                     46                     47                     48
                      A                      A                      A
 Frequencies --   1295.6273              1302.7100              1324.5042
 Red. masses --      1.1181                 1.3641                 1.2135
 Frc consts  --      1.1058                 1.3639                 1.2543
 IR Inten    --     24.0640               101.9538                23.0951

                     49                     50                     51
                      A                      A                      A
 Frequencies --   1334.2115              1353.8673              1361.7665
 Red. masses --      1.2564                 1.5015                 1.3489
 Frc consts  --      1.3177                 1.6215                 1.4738
 IR Inten    --     21.7276                11.9611                 6.5369

                     52                     53                     54
                      A                      A                      A
 Frequencies --   1368.5473              1382.7806              1387.4127
 Red. masses --      1.3887                 1.4595                 1.4897
 Frc consts  --      1.5324                 1.6442                 1.6895
 IR Inten    --      3.8494                 2.1695                 5.6294

                     55                     56                     57
                      A                      A                      A
 Frequencies --   1390.6512              1399.6864              1405.1504
 Red. masses --      1.6540                 1.3086                 1.3489
 Frc consts  --      1.8846                 1.5104                 1.5692
 IR Inten    --     19.1278                13.0325                 6.3999

                     58                     59                     60
                      A                      A                      A
 Frequencies --   1411.2289              1427.3176              1433.6966
 Red. masses --      1.4483                 1.3657                 1.4086
 Frc consts  --      1.6994                 1.6393                 1.7059
 IR Inten    --     15.5224                 8.3410                22.9882

                     61                     62                     63
                      A                      A                      A
 Frequencies --   1455.0695              1465.5417              1469.1348
 Red. masses --      1.1692                 1.1045                 1.0979
 Frc consts  --      1.4584                 1.3977                 1.3962
 IR Inten    --     15.7445                 3.1681                 6.4723

                     64                     65                     66
                      A                      A                      A
 Frequencies --   1472.4070              1479.1291              1487.1509
 Red. masses --      1.0969                 1.1216                 1.0894
 Frc consts  --      1.4011                 1.4457                 1.4195
 IR Inten    --      9.8644                14.9661                 4.1606

                     67                     68                     69
                      A                      A                      A
 Frequencies --   1502.6808              1503.4049              1519.2207
 Red. masses --      1.1010                 1.1009                 1.0918
 Frc consts  --      1.4648                 1.4660                 1.4847
 IR Inten    --     14.2919                 7.3507                 5.6799

                     70                     71                     72
                      A                      A                      A
 Frequencies --   3031.0130              3042.4278              3064.7538
 Red. masses --      1.0700                 1.0677                 1.0676
 Frc consts  --      5.7917                 5.8228                 5.9083
 IR Inten    --     78.1939                62.4907                23.4005

                     73                     74                     75
                      A                      A                      A
 Frequencies --   3070.1782              3071.6892              3076.6358
 Red. masses --      1.0647                 1.0631                 1.0653
 Frc consts  --      5.9127                 5.9096                 5.9413
 IR Inten    --     39.8392                59.4062                13.3992

                     76                     77                     78
                      A                      A                      A
 Frequencies --   3078.4433              3081.4027              3115.6989
 Red. masses --      1.0612                 1.0614                 1.0991
 Frc consts  --      5.9251                 5.9376                 6.2863
 IR Inten    --     34.9443                31.4227                42.9797

                     79                     80                     81
                      A                      A                      A
 Frequencies --   3121.9373              3122.1205              3124.5063
 Red. masses --      1.0993                 1.0972                 1.0949
 Frc consts  --      6.3125                 6.3011                 6.2977
 IR Inten    --     56.3590                55.4698                 8.9541

                     82                     83                     84
                      A                      A                      A
 Frequencies --   3127.0533              3130.1747              3136.2211
 Red. masses --      1.1028                 1.0992                 1.0968
 Frc consts  --      6.3537                 6.3456                 6.3562
 IR Inten    --     62.5240                55.0857                44.3398

                     85                     86                     87
                      A                      A                      A
 Frequencies --   3137.5917              3138.2010              3147.3406
 Red. masses --      1.0987                 1.0971                 1.0855
 Frc consts  --      6.3724                 6.3657                 6.3354
 IR Inten    --     37.9491                40.8557                38.1351

 - Thermochemistry -
 -------------------
 Temperature   298.150 Kelvin.  Pressure   1.00000 Atm.
 Atom     1 has atomic number  6 and mass  12.00000

 Molecular mass:   186.12559 amu.
 Principal axes and moments of inertia in atomic units:
                           1         2         3
     Eigenvalues --  1063.550463709.403514040.64056
           X            0.99985   0.01717   0.00268
           Y           -0.01713   0.99975  -0.01467
           Z           -0.00293   0.01463   0.99989
 This molecule is an asymmetric top.
 Rotational symmetry number  1.
 Warning -- assumption of classical behavior for rotation
           may cause significant error
 Rotational temperatures (Kelvin)      0.08144     0.02335     0.02144
 Rotational constants (GHZ):           1.69690     0.48653     0.44665
 Zero-point vibrational energy     738144.9 (Joules/Mol)
                                  176.42086 (Kcal/Mol)
 Warning -- explicit consideration of  17 degrees of freedom as
           vibrations may cause significant error
 Vibrational temperatures:     63.33    80.69   133.04   187.18   256.89
          (Kelvin)            289.97   321.47   431.63   490.84   523.68
                              600.50   612.65   637.02   675.80   744.61
                              759.37   827.83   982.65  1079.75  1134.74
                             1197.48  1236.66  1239.87  1264.03  1292.66
                             1303.99  1310.14  1341.55  1362.27  1430.36
                             1472.39  1502.39  1524.83  1536.58  1558.33
                             1576.78  1593.97  1648.80  1671.04  1684.33
                             1721.85  1760.37  1768.14  1785.27  1808.47
                             1864.12  1874.31  1905.67  1919.63  1947.91
                             1959.28  1969.03  1989.51  1996.18  2000.84
                             2013.84  2021.70  2030.44  2053.59  2062.77
                             2093.52  2108.59  2113.76  2118.47  2128.14
                             2139.68  2162.02  2163.06  2185.82  4360.95
                             4377.38  4409.50  4417.30  4419.48  4426.59
                             4429.19  4433.45  4482.80  4491.77  4492.04
                             4495.47  4499.13  4503.62  4512.32  4514.29
                             4515.17  4528.32

 Zero-point correction=                           0.281145 (Hartree/Particle)
 Thermal correction to Energy=                    0.292920
 Thermal correction to Enthalpy=                  0.293865
 Thermal correction to Gibbs Free Energy=         0.242773
 Sum of electronic and zero-point Energies=           -617.216677
 Sum of electronic and thermal Energies=              -617.204901
 Sum of electronic and thermal Enthalpies=            -617.203957
 Sum of electronic and thermal Free Energies=         -617.255049

                     E (Thermal)             CV                S
                      KCal/Mol        Cal/Mol-Kelvin    Cal/Mol-Kelvin
 Total                  183.810             46.685            107.532
 Electronic               0.000              0.000              0.000
 Translational            0.889              2.981             41.570
 Rotational               0.889              2.981             31.145
 Vibrational            182.033             40.723             34.818
 Vibration     1          0.595              1.980              5.069
 Vibration     2          0.596              1.975              4.590
 Vibration     3          0.602              1.955              3.607
 Vibration     4          0.612              1.923              2.945
 Vibration     5          0.629              1.869              2.344
 Vibration     6          0.638              1.838              2.119
 Vibration     7          0.649              1.805              1.931
 Vibration     8          0.693              1.674              1.417
 Vibration     9          0.721              1.593              1.207
 Vibration    10          0.738              1.546              1.105
 Vibration    11          0.780              1.433              0.901
 Vibration    12          0.788              1.414              0.872
 Vibration    13          0.802              1.377              0.818
 Vibration    14          0.827              1.317              0.738
 Vibration    15          0.873              1.211              0.616
 Vibration    16          0.883              1.188              0.592
 Vibration    17          0.932              1.085              0.494

                           ! Non-Optimized Parameters !
 Normal termination of Gaussian 16 at Fri Mar  8 19:21:47 2019.
