 Gaussian 16, Revision B.01,
 Gaussian 16:  ES64L-G16RevB.01 20-Dec-2017

 ----------------------------------------------------------------------
 #M062X/6-311++G(2d,2p) opt=ModRedundant freq=noraman SCRF=(SMD,solvent
 =water)
 ----------------------------------------------------------------------

 --------------------------------
 4c1_a1_a4_4c1_PHI.inp_extract_18
 --------------------------------
 Symbolic Z-matrix:
 Charge =  0 Multiplicity = 1

 SCF Done:  E(RM062X) =  -617.491749687     A.U. after   13 cycles
 SCF Done:  E(RM062X) =  -617.492570749     A.U. after   11 cycles
 SCF Done:  E(RM062X) =  -617.493499483     A.U. after   11 cycles
 SCF Done:  E(RM062X) =  -617.494014492     A.U. after   11 cycles
 SCF Done:  E(RM062X) =  -617.494206478     A.U. after   10 cycles
 SCF Done:  E(RM062X) =  -617.494323925     A.U. after   10 cycles
 SCF Done:  E(RM062X) =  -617.494370902     A.U. after   10 cycles
 SCF Done:  E(RM062X) =  -617.494390444     A.U. after    9 cycles
 SCF Done:  E(RM062X) =  -617.494398023     A.U. after    8 cycles
 SCF Done:  E(RM062X) =  -617.494398279     A.U. after    9 cycles
 SCF Done:  E(RM062X) =  -617.494399615     A.U. after    8 cycles
 SCF Done:  E(RM062X) =  -617.494399722     A.U. after    8 cycles
 SCF Done:  E(RM062X) =  -617.494399753     A.U. after    7 cycles
 Optimization completed.
    -- Stationary point found.
 Normal termination of Gaussian 16 at Fri Mar  8 20:13:48 2019.

 ----------------------------------------------------------------------
 #N Geom=AllCheck Guess=TCheck SCRF=Check GenChk RM062X/6-311++G(2d,2p)
  Freq
 ----------------------------------------------------------------------

 Structure from the checkpoint file:  "4c1_a1_a4_4c1_PHI.inp_extract_18.chk"
 --------------------------------
 4c1_a1_a4_4c1_PHI.inp_extract_18
 --------------------------------
 Charge =  0 Multiplicity = 1

                         Standard orientation:
 ---------------------------------------------------------------------
 Center     Atomic      Atomic             Coordinates (Angstroms)
 Number     Number       Type             X           Y           Z
 ---------------------------------------------------------------------
      1          6           0        1.820489   -1.159063   -0.931926
      2          6           0       -1.098924   -0.156010    1.143901
      3          6           0        0.723919   -0.162370   -0.588313
      4          6           0       -3.240061    0.356557   -0.754979
      5          6           0        3.500534    0.117445    0.114203
      6          8           0        2.865410   -1.157671    0.030628
      7          6           0       -2.757821   -1.071714   -0.526436
      8          6           0       -2.102668    1.332331   -0.524980
      9          6           0       -2.207970   -1.167266    0.891498
     10          6           0        2.514257    1.198274    0.521191
     11          8           0       -1.445724    1.145142    0.738697
     12          8           0        0.141230   -0.642661    0.624022
     13          6           0        1.341654    1.229866   -0.457241
     14          1           0        2.225551   -0.910503   -1.918746
     15          1           0        1.418639   -2.170140   -0.956104
     16          1           0       -0.920780   -0.067180    2.214708
     17          1           0       -0.001931   -0.193196   -1.401686
     18          1           0       -4.055490    0.577692   -0.062400
     19          1           0       -3.615791    0.499563   -1.768283
     20          1           0        4.302693    0.010938    0.841603
     21          1           0        3.941271    0.357728   -0.860567
     22          1           0       -1.980995   -1.326303   -1.251981
     23          1           0       -3.572653   -1.781875   -0.661747
     24          1           0       -2.466536    2.357381   -0.495401
     25          1           0       -1.373510    1.263658   -1.333706
     26          1           0       -3.010953   -0.957661    1.602119
     27          1           0       -1.816868   -2.158326    1.116515
     28          1           0        3.025158    2.161130    0.540144
     29          1           0        2.154990    0.994998    1.531975
     30          1           0        0.595026    1.959578   -0.156376
     31          1           0        1.704384    1.515729   -1.448359
 ---------------------------------------------------------------------

 SCF Done:  E(RM062X) =  -617.494399753     A.U. after    1 cycles

 The electronic state is 1-A.
 Alpha  occ. eigenvalues --  -19.63405 -19.62830 -19.62305 -10.63418 -10.58330
 Alpha  occ. eigenvalues --  -10.57562 -10.57444 -10.57247 -10.52433 -10.52350
 Alpha  occ. eigenvalues --  -10.52277 -10.52209 -10.52157  -1.18994  -1.16148
 Alpha  occ. eigenvalues --   -1.12732  -0.90349  -0.89445  -0.86978  -0.83983
 Alpha  occ. eigenvalues --   -0.74340  -0.73275  -0.72939  -0.70669  -0.65708
 Alpha  occ. eigenvalues --   -0.62015  -0.59078  -0.57454  -0.56845  -0.54914
 Alpha  occ. eigenvalues --   -0.53433  -0.52406  -0.52252  -0.50333  -0.50157
 Alpha  occ. eigenvalues --   -0.47930  -0.46156  -0.45764  -0.45329  -0.44484
 Alpha  occ. eigenvalues --   -0.43135  -0.42304  -0.40162  -0.39500  -0.39085
 Alpha  occ. eigenvalues --   -0.37961  -0.37061  -0.36004  -0.34878  -0.32119
 Alpha  occ. eigenvalues --   -0.31395
 Alpha virt. eigenvalues --    0.00278   0.01239   0.01359   0.01609   0.02765
 Alpha virt. eigenvalues --    0.03065   0.03168   0.03653   0.04069   0.05122
 Alpha virt. eigenvalues --    0.05258   0.05477   0.06084   0.06321   0.07637

 Mulliken charges:
               1
     1  C   -0.631844
     2  C   -0.191299
     3  C    0.251404
     4  C   -0.467515
     5  C   -0.223863
     6  O   -0.367387
     7  C   -0.261422
     8  C   -0.144918
     9  C   -0.245756
    10  C   -0.271130
    11  O   -0.314688
    12  O   -0.311955
    13  C   -0.443087
    14  H    0.208189
    15  H    0.204535
    16  H    0.251566
    17  H    0.257472
    18  H    0.176412
    19  H    0.183882
    20  H    0.208319
    21  H    0.155045
    22  H    0.169738
    23  H    0.210550
    24  H    0.232186
    25  H    0.184130
    26  H    0.196658
    27  H    0.187289
    28  H    0.183713
    29  H    0.171080
    30  H    0.202838
    31  H    0.239858
 Sum of Mulliken charges =  -0.00000

 Dipole moment (field-independent basis, Debye):
    X=             -2.4809    Y=              1.7935    Z=             -3.5668  Tot=              4.7004
 Quadrupole moment (field-independent basis, Debye-Ang):
   XX=            -74.7506   YY=            -83.2435   ZZ=            -76.9074
   XY=              8.8876   XZ=             -1.2103   YZ=             -0.5711

  Exact polarizability: 179.440   0.630 171.577   1.125  -1.834 172.236
 Approx polarizability: 144.019  -0.329 142.041   0.497  -1.643 144.522

 ******    1 imaginary frequencies (negative Signs) ******

                      1                      2                      3
                      A                      A                      A
 Frequencies --    -54.7914                51.6625               114.6991
 Red. masses --      3.9107                 3.7607                 3.1665
 Frc consts  --      0.0069                 0.0059                 0.0245
 IR Inten    --      9.2530                 0.1688                 0.9329

                      4                      5                      6
                      A                      A                      A
 Frequencies --    122.9131               184.8173               221.8848
 Red. masses --      4.0577                 4.1791                 3.2168
 Frc consts  --      0.0361                 0.0841                 0.0933
 IR Inten    --      1.4296                12.8183                 1.0851

                      7                      8                      9
                      A                      A                      A
 Frequencies --    252.3258               288.8586               338.7630
 Red. masses --      3.4079                 2.1946                 2.0331
 Frc consts  --      0.1278                 0.1079                 0.1375
 IR Inten    --      6.2750                 9.2227                 4.7664

                     10                     11                     12
                      A                      A                      A
 Frequencies --    358.0489               409.1123               436.9976
 Red. masses --      2.2923                 2.0323                 2.1319
 Frc consts  --      0.1731                 0.2004                 0.2399
 IR Inten    --      3.2356                 7.1456                 9.8575

                     13                     14                     15
                      A                      A                      A
 Frequencies --    440.0617               473.9082               522.9013
 Red. masses --      3.2643                 4.0842                 2.7117
 Frc consts  --      0.3725                 0.5404                 0.4368
 IR Inten    --      3.5745                 9.7726                 1.0546

                     16                     17                     18
                      A                      A                      A
 Frequencies --    526.2467               587.4099               673.0816
 Red. masses --      2.4331                 2.5362                 2.6863
 Frc consts  --      0.3970                 0.5156                 0.7170
 IR Inten    --      8.4150                13.6593                 2.1699

                     19                     20                     21
                      A                      A                      A
 Frequencies --    752.1975               802.1374               840.5557
 Red. masses --      2.7457                 2.4905                 2.1349
 Frc consts  --      0.9153                 0.9441                 0.8887
 IR Inten    --      5.0923                11.8341                 9.8203

                     22                     23                     24
                      A                      A                      A
 Frequencies --    853.5280               854.5805               878.4726
 Red. masses --      2.2750                 2.7549                 1.6138
 Frc consts  --      0.9765                 1.1854                 0.7337
 IR Inten    --      1.7581                 0.5968                14.6508

                     25                     26                     27
                      A                      A                      A
 Frequencies --    893.7980               902.4025               918.4225
 Red. masses --      2.5773                 2.3328                 2.4136
 Frc consts  --      1.2131                 1.1193                 1.1995
 IR Inten    --     37.0225                45.6015                59.7251

                     28                     29                     30
                      A                      A                      A
 Frequencies --    929.6305               944.8355               985.7275
 Red. masses --      2.0882                 1.5143                 2.0054
 Frc consts  --      1.0633                 0.7965                 1.1481
 IR Inten    --     13.4701                 7.0781                36.6235

                     31                     32                     33
                      A                      A                      A
 Frequencies --   1029.1700              1038.8617              1057.3612
 Red. masses --      2.0823                 2.2983                 1.9729
 Frc consts  --      1.2995                 1.4614                 1.2995
 IR Inten    --     22.1951                46.2417                31.0940

                     34                     35                     36
                      A                      A                      A
 Frequencies --   1064.8716              1072.9071              1080.5289
 Red. masses --      1.7872                 1.5651                 2.4385
 Frc consts  --      1.1941                 1.0615                 1.6775
 IR Inten    --     49.4744                11.8672               300.6183

                     37                     38                     39
                      A                      A                      A
 Frequencies --   1106.3579              1143.8841              1152.7687
 Red. masses --      1.7520                 2.2892                 2.5739
 Frc consts  --      1.2635                 1.7648                 2.0152
 IR Inten    --     23.1654                62.9338               148.9262

                     40                     41                     42
                      A                      A                      A
 Frequencies --   1163.8488              1191.8416              1206.7872
 Red. masses --      2.4614                 2.1067                 1.3650
 Frc consts  --      1.9644                 1.7632                 1.1712
 IR Inten    --     99.3327               121.5613                13.3602

                     43                     44                     45
                      A                      A                      A
 Frequencies --   1220.4399              1242.4325              1266.9457
 Red. masses --      1.3450                 1.7108                 2.3947
 Frc consts  --      1.1803                 1.5560                 2.2648
 IR Inten    --     19.0469                52.7070               206.2555

                     46                     47                     48
                      A                      A                      A
 Frequencies --   1286.3285              1295.6941              1321.7120
 Red. masses --      1.2380                 1.1376                 1.1755
 Frc consts  --      1.2069                 1.1252                 1.2099
 IR Inten    --     38.7253                28.9961                23.3118

                     49                     50                     51
                      A                      A                      A
 Frequencies --   1337.6878              1354.6063              1359.2367
 Red. masses --      1.2126                 1.4139                 1.4137
 Frc consts  --      1.2784                 1.5286                 1.5388
 IR Inten    --     20.8267                28.3994                 8.4308

                     52                     53                     54
                      A                      A                      A
 Frequencies --   1366.3711              1387.2454              1389.7251
 Red. masses --      1.3887                 1.5084                 1.5434
 Frc consts  --      1.5275                 1.7103                 1.7563
 IR Inten    --      4.6605                 1.2213                13.3717

                     55                     56                     57
                      A                      A                      A
 Frequencies --   1390.9306              1395.3612              1407.2537
 Red. masses --      1.7499                 1.3280                 1.4034
 Frc consts  --      1.9947                 1.5235                 1.6375
 IR Inten    --     24.5424                19.4207                 5.6824

                     58                     59                     60
                      A                      A                      A
 Frequencies --   1409.6801              1425.9916              1431.5929
 Red. masses --      1.3637                 1.2602                 1.3592
 Frc consts  --      1.5967                 1.5098                 1.6412
 IR Inten    --      1.0363                 6.9563                 5.7588

                     61                     62                     63
                      A                      A                      A
 Frequencies --   1453.5856              1468.8438              1470.1176
 Red. masses --      1.3339                 1.0929                 1.1039
 Frc consts  --      1.6606                 1.3893                 1.4056
 IR Inten    --     28.3318                 6.5764                 6.3244

                     64                     65                     66
                      A                      A                      A
 Frequencies --   1476.9934              1481.0865              1489.0746
 Red. masses --      1.0912                 1.1215                 1.0871
 Frc consts  --      1.4025                 1.4495                 1.4202
 IR Inten    --      9.1643                13.2799                 3.7278

                     67                     68                     69
                      A                      A                      A
 Frequencies --   1496.6754              1504.1194              1528.7286
 Red. masses --      1.1153                 1.1001                 1.0960
 Frc consts  --      1.4719                 1.4664                 1.5091
 IR Inten    --     18.1814                 6.4981                 8.5879

                     70                     71                     72
                      A                      A                      A
 Frequencies --   3029.5589              3045.2949              3062.2314
 Red. masses --      1.0700                 1.0678                 1.0692
 Frc consts  --      5.7864                 5.8346                 5.9070
 IR Inten    --     76.1955                57.2152                 9.2640

                     73                     74                     75
                      A                      A                      A
 Frequencies --   3066.8747              3067.9768              3073.3627
 Red. masses --      1.0702                 1.0638                 1.0634
 Frc consts  --      5.9310                 5.8994                 5.9181
 IR Inten    --     25.2031                34.5617                40.6727

                     76                     77                     78
                      A                      A                      A
 Frequencies --   3075.4856              3084.7819              3104.1776
 Red. masses --      1.0619                 1.0680                 1.0787
 Frc consts  --      5.9177                 5.9877                 6.1243
 IR Inten    --     55.8643                34.1102               111.4652

                     79                     80                     81
                      A                      A                      A
 Frequencies --   3110.0696              3119.2310              3121.7720
 Red. masses --      1.0874                 1.0966                 1.1000
 Frc consts  --      6.1972                 6.2861                 6.3158
 IR Inten    --     39.6483                34.9560                60.7617

                     82                     83                     84
                      A                      A                      A
 Frequencies --   3122.0565              3131.4298              3136.1065
 Red. masses --      1.1014                 1.0999                 1.0957
 Frc consts  --      6.3250                 6.3547                 6.3492
 IR Inten    --     61.9808                35.4725                50.2402

                     85                     86                     87
                      A                      A                      A
 Frequencies --   3138.9953              3139.1148              3153.2097
 Red. masses --      1.0992                 1.1027                 1.0941
 Frc consts  --      6.3811                 6.4021                 6.4094
 IR Inten    --     28.5076                65.1855                18.7166

 - Thermochemistry -
 -------------------
 Temperature   298.150 Kelvin.  Pressure   1.00000 Atm.
 Atom     1 has atomic number  6 and mass  12.00000

 Molecular mass:   186.12559 amu.
 Principal axes and moments of inertia in atomic units:
                           1         2         3
     Eigenvalues --  1046.261883672.739793983.86003
           X            0.99984   0.01742   0.00308
           Y           -0.01738   0.99978  -0.01194
           Z           -0.00329   0.01188   0.99992
 This molecule is an asymmetric top.
 Rotational symmetry number  1.
 Warning -- assumption of classical behavior for rotation
           may cause significant error
 Rotational temperatures (Kelvin)      0.08278     0.02358     0.02174
 Rotational constants (GHZ):           1.72494     0.49139     0.45301
    1 imaginary frequencies ignored.
 Zero-point vibrational energy     737553.8 (Joules/Mol)
                                  176.27958 (Kcal/Mol)
 Warning -- explicit consideration of  16 degrees of freedom as
           vibrations may cause significant error
 Vibrational temperatures:     74.33   165.03   176.84   265.91   319.24
          (Kelvin)            363.04   415.60   487.40   515.15   588.62
                              628.74   633.15   681.85   752.34   757.15
                              845.15   968.41  1082.24  1154.10  1209.37
                             1228.04  1229.55  1263.93  1285.98  1298.36
                             1321.41  1337.53  1359.41  1418.24  1480.75
                             1494.69  1521.31  1532.11  1543.67  1554.64
                             1591.80  1645.79  1658.58  1674.52  1714.79
                             1736.30  1755.94  1787.58  1822.85  1850.74
                             1864.21  1901.65  1924.63  1948.98  1955.64
                             1965.90  1995.94  1999.50  2001.24  2007.61
                             2024.72  2028.22  2051.68  2059.74  2091.39
                             2113.34  2115.17  2125.06  2130.95  2142.45
                             2153.38  2164.09  2199.50  4358.86  4381.50
                             4405.87  4412.55  4414.13  4421.88  4424.94
                             4438.31  4466.22  4474.70  4487.88  4491.53
                             4491.94  4505.43  4512.16  4516.31  4516.49
                             4536.77

 Zero-point correction=                           0.280919 (Hartree/Particle)
 Thermal correction to Energy=                    0.291765
 Thermal correction to Enthalpy=                  0.292709
 Thermal correction to Gibbs Free Energy=         0.244292
 Sum of electronic and zero-point Energies=           -617.213480
 Sum of electronic and thermal Energies=              -617.202635
 Sum of electronic and thermal Enthalpies=            -617.201691
 Sum of electronic and thermal Free Energies=         -617.250108

                     E (Thermal)             CV                S
                      KCal/Mol        Cal/Mol-Kelvin    Cal/Mol-Kelvin
 Total                  183.085             44.682            101.903
 Electronic               0.000              0.000              0.000
 Translational            0.889              2.981             41.570
 Rotational               0.889              2.981             31.105
 Vibrational            181.308             38.720             29.228
 Vibration     1          0.596              1.977              4.753
 Vibration     2          0.608              1.937              3.188
 Vibration     3          0.610              1.930              3.054
 Vibration     4          0.631              1.861              2.279
 Vibration     5          0.648              1.808              1.944
 Vibration     6          0.664              1.759              1.714
 Vibration     7          0.685              1.694              1.481
 Vibration     8          0.719              1.598              1.218
 Vibration     9          0.733              1.559              1.131
 Vibration    10          0.773              1.450              0.930
 Vibration    11          0.797              1.390              0.836
 Vibration    12          0.800              1.383              0.826
 Vibration    13          0.831              1.308              0.727
 Vibration    14          0.878              1.199              0.603
 Vibration    15          0.881              1.192              0.596
 Vibration    16          0.945              1.059              0.472

 Optimization completed.
    -- Stationary point found.
 Normal termination of Gaussian 16 at Fri Mar  8 21:21:36 2019.
