 Gaussian 16, Revision B.01,
 Gaussian 16:  ES64L-G16RevB.01 20-Dec-2017

 ----------------------------------------------------------------------
 #M062X/6-311++G(2d,2p) opt=ModRedundant freq=noraman SCRF=(SMD,solvent
 =water)
 ----------------------------------------------------------------------

 --------------------------------
 4c1_a1_a4_4c1_PHI.inp_extract_23
 --------------------------------
 Symbolic Z-matrix:
 Charge =  0 Multiplicity = 1

 SCF Done:  E(RM062X) =  -617.506865910     A.U. after   12 cycles
 SCF Done:  E(RM062X) =  -617.508779660     A.U. after   10 cycles
 SCF Done:  E(RM062X) =  -617.509048415     A.U. after   10 cycles
 SCF Done:  E(RM062X) =  -617.509166066     A.U. after   10 cycles
 SCF Done:  E(RM062X) =  -617.509257475     A.U. after   11 cycles
 SCF Done:  E(RM062X) =  -617.509257839     A.U. after   10 cycles
 SCF Done:  E(RM062X) =  -617.509296940     A.U. after    9 cycles
 SCF Done:  E(RM062X) =  -617.509330081     A.U. after   10 cycles
 SCF Done:  E(RM062X) =  -617.509329793     A.U. after    8 cycles
 SCF Done:  E(RM062X) =  -617.509332420     A.U. after    9 cycles
 SCF Done:  E(RM062X) =  -617.509332678     A.U. after    7 cycles
 SCF Done:  E(RM062X) =  -617.509332763     A.U. after    7 cycles
 Optimization completed.
    -- Stationary point found.
 Normal termination of Gaussian 16 at Fri Mar  8 21:59:02 2019.

 ----------------------------------------------------------------------
 #N Geom=AllCheck Guess=TCheck SCRF=Check GenChk RM062X/6-311++G(2d,2p)
  Freq
 ----------------------------------------------------------------------

 Structure from the checkpoint file:  "4c1_a1_a4_4c1_PHI.inp_extract_23.chk"
 --------------------------------
 4c1_a1_a4_4c1_PHI.inp_extract_23
 --------------------------------
 Charge =  0 Multiplicity = 1

                         Standard orientation:
 ---------------------------------------------------------------------
 Center     Atomic      Atomic             Coordinates (Angstroms)
 Number     Number       Type             X           Y           Z
 ---------------------------------------------------------------------
      1          6           0       -1.854380    0.430385   -1.449238
      2          6           0        0.950847   -0.223833    0.830832
      3          6           0       -0.915170   -0.474261   -0.673109
      4          6           0        3.482019    0.092961   -0.501182
      5          6           0       -3.458041    0.444133    0.280098
      6          8           0       -2.647036    1.236070   -0.587507
      7          6           0        2.832943    1.306158    0.160393
      8          6           0        2.410769   -0.892057   -0.929084
      9          6           0        1.928590    0.839509    1.298754
     10          6           0       -2.610500   -0.451937    1.167400
     11          8           0        1.598926   -1.298376    0.181316
     12          8           0        0.011393    0.398238   -0.017656
     13          6           0       -1.716998   -1.334321    0.299540
     14          1           0       -2.501024   -0.187413   -2.081118
     15          1           0       -1.287354    1.112362   -2.080492
     16          1           0        0.442539   -0.680906    1.680603
     17          1           0       -0.378131   -1.105802   -1.384039
     18          1           0        4.157354   -0.397936    0.203794
     19          1           0        4.065889    0.383935   -1.374825
     20          1           0       -4.049670    1.144588    0.865773
     21          1           0       -4.137295   -0.164852   -0.328005
     22          1           0        2.245482    1.852565   -0.580395
     23          1           0        3.589453    1.990515    0.542736
     24          1           0        2.840360   -1.809451   -1.325095
     25          1           0        1.774690   -0.447968   -1.700172
     26          1           0        2.532761    0.396567    2.092467
     27          1           0        1.363745    1.664627    1.731713
     28          1           0       -3.264901   -1.059522    1.792574
     29          1           0       -2.001337    0.168119    1.828636
     30          1           0       -1.062629   -1.963163    0.901432
     31          1           0       -2.336659   -2.004139   -0.301241
 ---------------------------------------------------------------------

 SCF Done:  E(RM062X) =  -617.509332763     A.U. after    1 cycles

 The electronic state is 1-A.
 Alpha  occ. eigenvalues --  -19.63169 -19.63088 -19.62890 -10.63043 -10.58233
 Alpha  occ. eigenvalues --  -10.57559 -10.57342 -10.57334 -10.52528 -10.52454
 Alpha  occ. eigenvalues --  -10.52339 -10.52336 -10.52214  -1.19896  -1.16170
 Alpha  occ. eigenvalues --   -1.12925  -0.90489  -0.89050  -0.87080  -0.84056
 Alpha  occ. eigenvalues --   -0.74419  -0.73489  -0.72146  -0.70760  -0.65738
 Alpha  occ. eigenvalues --   -0.62028  -0.59456  -0.58220  -0.56937  -0.55322
 Alpha  occ. eigenvalues --   -0.53414  -0.52780  -0.51620  -0.50828  -0.49230
 Alpha  occ. eigenvalues --   -0.47037  -0.46514  -0.45969  -0.45433  -0.44887
 Alpha  occ. eigenvalues --   -0.43394  -0.42556  -0.40288  -0.39588  -0.38873
 Alpha  occ. eigenvalues --   -0.38041  -0.37346  -0.35704  -0.34478  -0.33199
 Alpha  occ. eigenvalues --   -0.32315
 Alpha virt. eigenvalues --    0.00338   0.01319   0.01340   0.01545   0.02748
 Alpha virt. eigenvalues --    0.02936   0.03149   0.03786   0.04019   0.05037
 Alpha virt. eigenvalues --    0.05170   0.05349   0.05822   0.06464   0.07699

 Mulliken charges:
               1
     1  C   -0.420504
     2  C   -0.011254
     3  C    0.096827
     4  C   -0.400294
     5  C   -0.236696
     6  O   -0.369974
     7  C   -0.313334
     8  C   -0.115654
     9  C   -0.454235
    10  C   -0.294109
    11  O   -0.323039
    12  O   -0.339989
    13  C   -0.353956
    14  H    0.202504
    15  H    0.207586
    16  H    0.267452
    17  H    0.239356
    18  H    0.169357
    19  H    0.180222
    20  H    0.209563
    21  H    0.160369
    22  H    0.173124
    23  H    0.189624
    24  H    0.216751
    25  H    0.140750
    26  H    0.199889
    27  H    0.190212
    28  H    0.183408
    29  H    0.161187
    30  H    0.206215
    31  H    0.238641
 Sum of Mulliken charges =   0.00000

 Dipole moment (field-independent basis, Debye):
    X=              0.5117    Y=             -2.0941    Z=             -0.2226  Tot=              2.1671
 Quadrupole moment (field-independent basis, Debye-Ang):
   XX=            -71.2020   YY=            -86.7390   ZZ=            -73.7248
   XY=              9.4948   XZ=             -3.1884   YZ=              3.1611

  Exact polarizability: 180.558   0.551 168.521  -2.800   1.947 174.041
 Approx polarizability: 144.416   0.031 141.795  -1.579   0.850 143.670

                      1                      2                      3
                      A                      A                      A
 Frequencies --     43.4157                72.1562               106.8144
 Red. masses --      3.7610                 3.5273                 3.8055
 Frc consts  --      0.0042                 0.0108                 0.0256
 IR Inten    --      0.7051                 3.9049                 4.1032

                      4                      5                      6
                      A                      A                      A
 Frequencies --    143.0140               183.6478               238.6295
 Red. masses --      3.6092                 3.0750                 3.3445
 Frc consts  --      0.0435                 0.0611                 0.1122
 IR Inten    --      1.0966                 0.4935                23.0516

                      7                      8                      9
                      A                      A                      A
 Frequencies --    268.5125               280.5420               349.1155
 Red. masses --      3.0753                 2.1279                 2.2131
 Frc consts  --      0.1306                 0.0987                 0.1589
 IR Inten    --      1.4193                 4.3854                 7.5088

                     10                     11                     12
                      A                      A                      A
 Frequencies --    387.3977               402.5260               435.1451
 Red. masses --      1.9721                 2.4357                 3.1771
 Frc consts  --      0.1744                 0.2325                 0.3544
 IR Inten    --      2.3933                 8.3439                18.1577

                     13                     14                     15
                      A                      A                      A
 Frequencies --    445.9610               498.7083               524.0501
 Red. masses --      2.4226                 3.3681                 2.3653
 Frc consts  --      0.2839                 0.4936                 0.3827
 IR Inten    --      0.5390                 7.4562                 7.9542

                     16                     17                     18
                      A                      A                      A
 Frequencies --    544.6662               595.7101               682.0082
 Red. masses --      2.4406                 2.9243                 2.6478
 Frc consts  --      0.4266                 0.6114                 0.7256
 IR Inten    --      6.4021                 2.7874                 7.0123

                     19                     20                     21
                      A                      A                      A
 Frequencies --    751.6142               831.4139               841.1229
 Red. masses --      2.6297                 1.5998                 3.8439
 Frc consts  --      0.8753                 0.6516                 1.6023
 IR Inten    --      5.2258                 2.9662                12.8197

                     22                     23                     24
                      A                      A                      A
 Frequencies --    846.9653               868.2159               881.0376
 Red. masses --      2.9561                 2.1650                 1.5809
 Frc consts  --      1.2494                 0.9615                 0.7230
 IR Inten    --      3.1867                 7.6253                10.7194

                     25                     26                     27
                      A                      A                      A
 Frequencies --    904.6705               909.4379               917.0776
 Red. masses --      2.2852                 2.4072                 2.3645
 Frc consts  --      1.1020                 1.1730                 1.1717
 IR Inten    --     11.9384                24.2974                64.7986

                     28                     29                     30
                      A                      A                      A
 Frequencies --    932.8229               947.8767              1008.1999
 Red. masses --      1.9490                 1.6334                 1.8968
 Frc consts  --      0.9992                 0.8646                 1.1359
 IR Inten    --     11.9635                27.9586                57.0524

                     31                     32                     33
                      A                      A                      A
 Frequencies --   1034.4318              1038.4587              1053.9217
 Red. masses --      2.1787                 2.3205                 1.8004
 Frc consts  --      1.3736                 1.4744                 1.1782
 IR Inten    --     18.4974                37.5181                16.8298

                     34                     35                     36
                      A                      A                      A
 Frequencies --   1063.4495              1071.7750              1086.4437
 Red. masses --      1.6822                 1.6871                 1.9300
 Frc consts  --      1.1209                 1.1418                 1.3422
 IR Inten    --     40.0924                12.0353               169.9602

                     37                     38                     39
                      A                      A                      A
 Frequencies --   1092.9785              1145.8415              1168.9192
 Red. masses --      1.7354                 2.9099                 2.3110
 Frc consts  --      1.2214                 2.2510                 1.8604
 IR Inten    --     41.5929               178.9958                17.0900

                     40                     41                     42
                      A                      A                      A
 Frequencies --   1179.0154              1203.8378              1213.5901
 Red. masses --      2.2429                 2.7451                 1.4253
 Frc consts  --      1.8369                 2.3440                 1.2368
 IR Inten    --     65.4498               151.7164                23.1792

                     43                     44                     45
                      A                      A                      A
 Frequencies --   1224.2744              1239.3332              1249.2233
 Red. masses --      1.4931                 1.7458                 2.1399
 Frc consts  --      1.3185                 1.5799                 1.9676
 IR Inten    --    107.2192                27.5867               188.7865

                     46                     47                     48
                      A                      A                      A
 Frequencies --   1286.4855              1296.3956              1322.2580
 Red. masses --      1.2575                 1.1202                 1.1648
 Frc consts  --      1.2262                 1.1093                 1.1999
 IR Inten    --     57.3444                11.6093                28.2582

                     49                     50                     51
                      A                      A                      A
 Frequencies --   1337.5854              1358.9087              1364.2572
 Red. masses --      1.2223                 1.3839                 1.3979
 Frc consts  --      1.2885                 1.5057                 1.5330
 IR Inten    --     16.8099                 6.9538                 2.9175

                     52                     53                     54
                      A                      A                      A
 Frequencies --   1368.2114              1374.9925              1386.5658
 Red. masses --      1.5886                 1.3694                 1.5238
 Frc consts  --      1.7522                 1.5254                 1.7260
 IR Inten    --      6.9037                25.7610                 2.7202

                     55                     56                     57
                      A                      A                      A
 Frequencies --   1392.1304              1398.7683              1407.5027
 Red. masses --      1.5449                 1.5479                 1.4258
 Frc consts  --      1.7641                 1.7843                 1.6642
 IR Inten    --      8.8357                26.7103                 3.2707

                     58                     59                     60
                      A                      A                      A
 Frequencies --   1414.1377              1423.6418              1431.3235
 Red. masses --      1.3261                 1.3504                 1.4040
 Frc consts  --      1.5625                 1.6125                 1.6947
 IR Inten    --      4.8918                 5.0934                14.3838

                     61                     62                     63
                      A                      A                      A
 Frequencies --   1446.2460              1468.7957              1473.3009
 Red. masses --      1.4260                 1.1057                 1.0945
 Frc consts  --      1.7573                 1.4055                 1.3998
 IR Inten    --     21.3136                 6.6349                 4.8549

                     64                     65                     66
                      A                      A                      A
 Frequencies --   1473.6026              1488.4314              1491.5487
 Red. masses --      1.0907                 1.0951                 1.1192
 Frc consts  --      1.3954                 1.4294                 1.4670
 IR Inten    --     11.5912                 9.1656                11.6015

                     67                     68                     69
                      A                      A                      A
 Frequencies --   1495.0054              1504.2081              1505.0765
 Red. masses --      1.1019                 1.0973                 1.0985
 Frc consts  --      1.4510                 1.4629                 1.4661
 IR Inten    --     23.2222                 6.7741                 7.9341

                     70                     71                     72
                      A                      A                      A
 Frequencies --   3028.9541              3048.8962              3057.3750
 Red. masses --      1.0702                 1.0673                 1.0692
 Frc consts  --      5.7849                 5.8454                 5.8886
 IR Inten    --     75.1439                52.6109                40.8963

                     73                     74                     75
                      A                      A                      A
 Frequencies --   3065.6431              3070.6496              3072.6698
 Red. masses --      1.0638                 1.0671                 1.0631
 Frc consts  --      5.8906                 5.9278                 5.9139
 IR Inten    --     43.4551                22.8958                40.3268

                     76                     77                     78
                      A                      A                      A
 Frequencies --   3074.5700              3080.4764              3084.1999
 Red. masses --      1.0647                 1.0641                 1.0811
 Frc consts  --      5.9298                 5.9494                 6.0592
 IR Inten    --     18.3137                 9.5119               116.8261

                     79                     80                     81
                      A                      A                      A
 Frequencies --   3099.3827              3117.4655              3121.3256
 Red. masses --      1.0861                 1.0974                 1.1023
 Frc consts  --      6.1472                 6.2835                 6.3274
 IR Inten    --     53.4631                35.8906                66.0747

                     82                     83                     84
                      A                      A                      A
 Frequencies --   3121.6224              3128.5408              3130.9416
 Red. masses --      1.1005                 1.0981                 1.1039
 Frc consts  --      6.3186                 6.3327                 6.3757
 IR Inten    --     48.4141                42.2018                50.9719

                     85                     86                     87
                      A                      A                      A
 Frequencies --   3136.3604              3137.9770              3141.5983
 Red. masses --      1.0971                 1.0968                 1.0984
 Frc consts  --      6.3586                 6.3631                 6.3873
 IR Inten    --     41.3677                37.6694                41.0513

 - Thermochemistry -
 -------------------
 Temperature   298.150 Kelvin.  Pressure   1.00000 Atm.
 Atom     1 has atomic number  6 and mass  12.00000

 Molecular mass:   186.12559 amu.
 Principal axes and moments of inertia in atomic units:
                           1         2         3
     Eigenvalues --  1019.349103931.265643998.15565
           X            0.99984   0.01749  -0.00449
           Y           -0.01657   0.98759   0.15615
           Z            0.00716  -0.15605   0.98772
 This molecule is an asymmetric top.
 Rotational symmetry number  1.
 Warning -- assumption of classical behavior for rotation
           may cause significant error
 Rotational temperatures (Kelvin)      0.08497     0.02203     0.02166
 Rotational constants (GHZ):           1.77048     0.45907     0.45139
 Zero-point vibrational energy     738909.4 (Joules/Mol)
                                  176.60357 (Kcal/Mol)
 Warning -- explicit consideration of  17 degrees of freedom as
           vibrations may cause significant error
 Vibrational temperatures:     62.47   103.82   153.68   205.77   264.23
          (Kelvin)            343.33   386.33   403.64   502.30   557.38
                              579.15   626.08   641.64   717.53   753.99
                              783.65   857.09   981.26  1081.41  1196.22
                             1210.19  1218.59  1249.17  1267.62  1301.62
                             1308.48  1319.47  1342.12  1363.78  1450.57
                             1488.32  1494.11  1516.36  1530.07  1542.05
                             1563.15  1572.55  1648.61  1681.81  1696.34
                             1732.05  1746.09  1761.46  1783.12  1797.35
                             1850.97  1865.22  1902.43  1924.49  1955.17
                             1962.86  1968.55  1978.31  1994.96  2002.97
                             2012.52  2025.08  2034.63  2048.30  2059.36
                             2080.83  2113.27  2119.75  2120.19  2141.52
                             2146.01  2150.98  2164.22  2165.47  4357.99
                             4386.68  4398.88  4410.78  4417.98  4420.89
                             4423.62  4432.12  4437.48  4459.32  4485.34
                             4490.89  4491.32  4501.27  4504.73  4512.52
                             4514.85  4520.06

 Zero-point correction=                           0.281436 (Hartree/Particle)
 Thermal correction to Energy=                    0.292932
 Thermal correction to Enthalpy=                  0.293877
 Thermal correction to Gibbs Free Energy=         0.243650
 Sum of electronic and zero-point Energies=           -617.227897
 Sum of electronic and thermal Energies=              -617.216400
 Sum of electronic and thermal Enthalpies=            -617.215456
 Sum of electronic and thermal Free Energies=         -617.265682

                     E (Thermal)             CV                S
                      KCal/Mol        Cal/Mol-Kelvin    Cal/Mol-Kelvin
 Total                  183.818             46.259            105.710
 Electronic               0.000              0.000              0.000
 Translational            0.889              2.981             41.570
 Rotational               0.889              2.981             31.150
 Vibrational            182.040             40.297             32.991
 Vibration     1          0.595              1.980              5.097
 Vibration     2          0.598              1.967              4.094
 Vibration     3          0.606              1.944              3.326
 Vibration     4          0.616              1.910              2.763
 Vibration     5          0.631              1.862              2.291
 Vibration     6          0.657              1.781              1.813
 Vibration     7          0.673              1.731              1.606
 Vibration     8          0.680              1.710              1.530
 Vibration     9          0.726              1.577              1.170
 Vibration    10          0.756              1.497              1.010
 Vibration    11          0.768              1.465              0.953
 Vibration    12          0.796              1.394              0.842
 Vibration    13          0.805              1.370              0.808
 Vibration    14          0.854              1.253              0.661
 Vibration    15          0.879              1.197              0.601
 Vibration    16          0.900              1.151              0.555
 Vibration    17          0.953              1.041              0.457

 Optimization completed.
    -- Stationary point found.
 Normal termination of Gaussian 16 at Fri Mar  8 23:05:49 2019.
