 Gaussian 16, Revision B.01,
 Gaussian 16:  ES64L-G16RevB.01 20-Dec-2017

 ----------------------------------------------------------------------
 #M062X/6-311++G(2d,2p) opt=ModRedundant freq=noraman SCRF=(SMD,solvent
 =water)
 ----------------------------------------------------------------------

 -------------------------------
 4c1_a1_a4_4c1_PHI.inp_extract_2
 -------------------------------
 Symbolic Z-matrix:
 Charge =  0 Multiplicity = 1

 SCF Done:  E(RM062X) =  -617.505749098     A.U. after   12 cycles
 SCF Done:  E(RM062X) =  -617.507401807     A.U. after   10 cycles
 SCF Done:  E(RM062X) =  -617.507521489     A.U. after    9 cycles
 SCF Done:  E(RM062X) =  -617.507527585     A.U. after    9 cycles
 SCF Done:  E(RM062X) =  -617.507529112     A.U. after    7 cycles
 SCF Done:  E(RM062X) =  -617.507528921     A.U. after    7 cycles
 Optimization completed.
    -- Stationary point found.
 Normal termination of Gaussian 16 at Fri Mar  8 13:08:54 2019.

 ----------------------------------------------------------------------
 #N Geom=AllCheck Guess=TCheck SCRF=Check GenChk RM062X/6-311++G(2d,2p)
  Freq
 ----------------------------------------------------------------------

 Structure from the checkpoint file:  "4c1_a1_a4_4c1_PHI.inp_extract_2.chk"
 -------------------------------
 4c1_a1_a4_4c1_PHI.inp_extract_2
 -------------------------------
 Charge =  0 Multiplicity = 1

                         Standard orientation:
 ---------------------------------------------------------------------
 Center     Atomic      Atomic             Coordinates (Angstroms)
 Number     Number       Type             X           Y           Z
 ---------------------------------------------------------------------
      1          6           0       -1.934336   -1.480682   -0.130697
      2          6           0        1.096097    0.281470    0.866551
      3          6           0       -1.127556   -0.583132    0.787481
      4          6           0        3.422611   -0.103916   -0.788329
      5          6           0       -3.324549    0.283464   -0.837573
      6          8           0       -2.453293   -0.770564   -1.247195
      7          6           0        2.472353    1.052846   -1.088463
      8          6           0        2.664367   -1.229340   -0.109533
      9          6           0        1.768021    1.470020    0.200502
     10          6           0       -2.587043    1.302422    0.013137
     11          8           0        2.009563   -0.779046    1.083675
     12          8           0        0.027670   -0.155718    0.058567
     13          6           0       -1.963092    0.615646    1.226754
     14          1           0       -2.756626   -1.924585    0.440496
     15          1           0       -1.306871   -2.276180   -0.528356
     16          1           0        0.732173    0.544368    1.859475
     17          1           0       -0.809728   -1.174440    1.650337
     18          1           0        4.223101    0.237603   -0.127469
     19          1           0        3.882915   -0.485790   -1.700011
     20          1           0       -3.713457    0.729751   -1.750363
     21          1           0       -4.160818   -0.146940   -0.274234
     22          1           0        1.734018    0.735612   -1.828426
     23          1           0        3.011837    1.899470   -1.511429
     24          1           0        3.330719   -2.027903    0.208743
     25          1           0        1.921719   -1.652686   -0.790641
     26          1           0        2.498604    1.873938    0.904004
     27          1           0        1.013390    2.236249    0.022303
     28          1           0       -3.282121    2.081070    0.327376
     29          1           0       -1.811151    1.776139   -0.591428
     30          1           0       -1.349227    1.311535    1.799674
     31          1           0       -2.751238    0.252622    1.890601
 ---------------------------------------------------------------------

 SCF Done:  E(RM062X) =  -617.507528921     A.U. after    1 cycles

 The electronic state is 1-A.
 Alpha  occ. eigenvalues --  -19.62970 -19.62943 -19.62926 -10.63075 -10.58393
 Alpha  occ. eigenvalues --  -10.57578 -10.57321 -10.57218 -10.52551 -10.52408
 Alpha  occ. eigenvalues --  -10.52348 -10.52301 -10.52181  -1.19689  -1.16201
 Alpha  occ. eigenvalues --   -1.13040  -0.90262  -0.89145  -0.86841  -0.84117
 Alpha  occ. eigenvalues --   -0.74165  -0.73108  -0.72246  -0.71356  -0.65962
 Alpha  occ. eigenvalues --   -0.62058  -0.59363  -0.57753  -0.56938  -0.54975
 Alpha  occ. eigenvalues --   -0.54169  -0.52644  -0.51491  -0.50983  -0.49085
 Alpha  occ. eigenvalues --   -0.47639  -0.46358  -0.45804  -0.45175  -0.44611
 Alpha  occ. eigenvalues --   -0.42591  -0.42544  -0.41560  -0.39652  -0.38778
 Alpha  occ. eigenvalues --   -0.37727  -0.37303  -0.36055  -0.34400  -0.33352
 Alpha  occ. eigenvalues --   -0.31939
 Alpha virt. eigenvalues --    0.00339   0.01297   0.01384   0.01484   0.02712
 Alpha virt. eigenvalues --    0.02963   0.03166   0.03748   0.03830   0.05168
 Alpha virt. eigenvalues --    0.05203   0.05288   0.05932   0.06184   0.07551

 Mulliken charges:
               1
     1  C   -0.434105
     2  C   -0.112044
     3  C    0.157896
     4  C   -0.369566
     5  C   -0.239393
     6  O   -0.352252
     7  C   -0.348056
     8  C   -0.163496
     9  C   -0.295761
    10  C   -0.302362
    11  O   -0.359783
    12  O   -0.321799
    13  C   -0.368536
    14  H    0.198446
    15  H    0.205538
    16  H    0.295531
    17  H    0.265014
    18  H    0.169550
    19  H    0.177420
    20  H    0.206097
    21  H    0.161879
    22  H    0.184161
    23  H    0.188041
    24  H    0.217041
    25  H    0.151664
    26  H    0.193453
    27  H    0.168523
    28  H    0.184933
    29  H    0.157790
    30  H    0.158457
    31  H    0.225722
 Sum of Mulliken charges =  -0.00000

 Dipole moment (field-independent basis, Debye):
    X=             -0.8869    Y=              1.7830    Z=              2.0007  Tot=              2.8229
 Quadrupole moment (field-independent basis, Debye-Ang):
   XX=            -70.8429   YY=            -76.4207   ZZ=            -83.4863
   XY=             -0.9257   XZ=            -10.1024   YZ=             -0.0329

  Exact polarizability: 180.917  -3.072 172.740  -1.490  -0.319 168.740
 Approx polarizability: 145.570  -2.205 141.266  -0.717  -0.215 142.300

 ******    1 imaginary frequencies (negative Signs) ******

                      1                      2                      3
                      A                      A                      A
 Frequencies --    -25.8469                49.7615                72.1374
 Red. masses --      3.7136                 3.5781                 3.9197
 Frc consts  --      0.0015                 0.0052                 0.0120
 IR Inten    --      5.0440                 0.1876                 3.3879

                      4                      5                      6
                      A                      A                      A
 Frequencies --    141.1654               175.8280               242.6167
 Red. masses --      3.2618                 3.5344                 2.8979
 Frc consts  --      0.0383                 0.0644                 0.1005
 IR Inten    --      1.4137                 1.5979                15.2929

                      7                      8                      9
                      A                      A                      A
 Frequencies --    249.0672               277.9005               338.3748
 Red. masses --      3.0563                 2.1036                 2.0749
 Frc consts  --      0.1117                 0.0957                 0.1400
 IR Inten    --      2.7691                 1.0288                 1.7557

                     10                     11                     12
                      A                      A                      A
 Frequencies --    392.4744               415.2875               432.1173
 Red. masses --      2.0340                 2.6799                 2.7432
 Frc consts  --      0.1846                 0.2723                 0.3018
 IR Inten    --      5.5055                 5.3710                19.3141

                     13                     14                     15
                      A                      A                      A
 Frequencies --    439.7246               511.0918               520.4652
 Red. masses --      2.5924                 4.0215                 2.4457
 Frc consts  --      0.2953                 0.6189                 0.3903
 IR Inten    --      1.3415                 8.1860                 2.2134

                     16                     17                     18
                      A                      A                      A
 Frequencies --    529.6575               563.3744               667.0267
 Red. masses --      2.3197                 3.1924                 2.4376
 Frc consts  --      0.3834                 0.5970                 0.6390
 IR Inten    --      4.2944                28.6338                 4.9785

                     19                     20                     21
                      A                      A                      A
 Frequencies --    745.9530               833.5949               840.7274
 Red. masses --      2.5122                 1.8892                 2.4251
 Frc consts  --      0.8236                 0.7735                 1.0099
 IR Inten    --      1.4498                 3.0628                10.5510

                     22                     23                     24
                      A                      A                      A
 Frequencies --    852.6165               870.3263               878.8376
 Red. masses --      3.3002                 1.8333                 1.8650
 Frc consts  --      1.4135                 0.8182                 0.8487
 IR Inten    --      0.9840                 7.2979                10.3537

                     25                     26                     27
                      A                      A                      A
 Frequencies --    900.6839               904.4484               911.2726
 Red. masses --      2.5045                 2.1779                 2.4107
 Frc consts  --      1.1971                 1.0497                 1.1795
 IR Inten    --     24.3377                12.3229                97.6587

                     28                     29                     30
                      A                      A                      A
 Frequencies --    938.2484               947.4925              1015.0841
 Red. masses --      2.0243                 1.5511                 1.7430
 Frc consts  --      1.0499                 0.8204                 1.0581
 IR Inten    --      4.3873                 8.7745                27.9572

                     31                     32                     33
                      A                      A                      A
 Frequencies --   1033.5084              1038.4276              1057.7958
 Red. masses --      2.3974                 2.0321                 1.8505
 Frc consts  --      1.5087                 1.2911                 1.2199
 IR Inten    --      7.1724                49.5328                21.3041

                     34                     35                     36
                      A                      A                      A
 Frequencies --   1063.8379              1068.9404              1083.1235
 Red. masses --      1.7567                 1.7117                 2.3259
 Frc consts  --      1.1714                 1.1523                 1.6077
 IR Inten    --     10.4973                28.8312               319.5493

                     37                     38                     39
                      A                      A                      A
 Frequencies --   1098.1461              1140.8430              1159.6411
 Red. masses --      1.8121                 2.6323                 2.4204
 Frc consts  --      1.2876                 2.0185                 1.9177
 IR Inten    --    101.4494               246.6780                40.8330

                     40                     41                     42
                      A                      A                      A
 Frequencies --   1177.6040              1187.7924              1210.5998
 Red. masses --      2.6145                 3.3220                 1.4583
 Frc consts  --      2.1362                 2.7614                 1.2592
 IR Inten    --     55.1150               121.5517                25.5342

                     43                     44                     45
                      A                      A                      A
 Frequencies --   1221.3640              1237.3673              1241.2952
 Red. masses --      1.3475                 1.7968                 1.8308
 Frc consts  --      1.1844                 1.6209                 1.6621
 IR Inten    --     32.2832                44.0961               145.4559

                     46                     47                     48
                      A                      A                      A
 Frequencies --   1281.5019              1296.8377              1317.7068
 Red. masses --      1.2161                 1.1335                 1.1524
 Frc consts  --      1.1767                 1.1231                 1.1789
 IR Inten    --     34.5145                 5.1019                14.8420

                     49                     50                     51
                      A                      A                      A
 Frequencies --   1335.5706              1354.7512              1358.1945
 Red. masses --      1.2211                 1.3403                 1.3837
 Frc consts  --      1.2833                 1.4493                 1.5038
 IR Inten    --     17.4149                13.5031                15.0050

                     52                     53                     54
                      A                      A                      A
 Frequencies --   1366.1940              1382.5623              1386.5890
 Red. masses --      1.5364                 1.4590                 1.5537
 Frc consts  --      1.6895                 1.6431                 1.7600
 IR Inten    --      7.2920                11.6349                13.3977

                     55                     56                     57
                      A                      A                      A
 Frequencies --   1390.6794              1395.0084              1400.0050
 Red. masses --      1.5220                 1.5280                 1.3587
 Frc consts  --      1.7343                 1.7520                 1.5690
 IR Inten    --     10.6565                28.0379                 3.4270

                     58                     59                     60
                      A                      A                      A
 Frequencies --   1409.4313              1425.5058              1430.8059
 Red. masses --      1.4062                 1.3943                 1.4501
 Frc consts  --      1.6458                 1.6693                 1.7491
 IR Inten    --     11.1561                29.3328                 3.9817

                     61                     62                     63
                      A                      A                      A
 Frequencies --   1445.8794              1469.0063              1470.6530
 Red. masses --      1.2757                 1.0925                 1.1116
 Frc consts  --      1.5713                 1.3891                 1.4165
 IR Inten    --     14.5649                 6.4661                 5.3245

                     64                     65                     66
                      A                      A                      A
 Frequencies --   1473.3382              1479.3226              1487.8542
 Red. masses --      1.0874                 1.1174                 1.0900
 Frc consts  --      1.3908                 1.4407                 1.4217
 IR Inten    --     10.5558                18.8522                 5.9218

                     67                     68                     69
                      A                      A                      A
 Frequencies --   1489.7786              1503.4938              1506.8752
 Red. masses --      1.1159                 1.0988                 1.0934
 Frc consts  --      1.4593                 1.4634                 1.4628
 IR Inten    --     15.0901                 6.5085                 5.2912

                     70                     71                     72
                      A                      A                      A
 Frequencies --   3028.7958              3046.2589              3061.5707
 Red. masses --      1.0701                 1.0675                 1.0687
 Frc consts  --      5.7838                 5.8368                 5.9019
 IR Inten    --     76.1123                47.5086                27.4613

                     73                     74                     75
                      A                      A                      A
 Frequencies --   3065.7436              3067.6410              3069.9184
 Red. masses --      1.0740                 1.0654                 1.0621
 Frc consts  --      5.9471                 5.9070                 5.8975
 IR Inten    --     19.3902                41.1835                57.6003

                     76                     77                     78
                      A                      A                      A
 Frequencies --   3075.1342              3075.7164              3077.1444
 Red. masses --      1.0729                 1.0624                 1.0622
 Frc consts  --      5.9779                 5.9215                 5.9260
 IR Inten    --     77.3817                25.2106                23.1821

                     79                     80                     81
                      A                      A                      A
 Frequencies --   3110.3597              3116.5200              3117.3194
 Red. masses --      1.0904                 1.0979                 1.0965
 Frc consts  --      6.2152                 6.2826                 6.2782
 IR Inten    --     50.8241                54.7611                22.6778

                     82                     83                     84
                      A                      A                      A
 Frequencies --   3119.9757              3124.1172              3125.8095
 Red. masses --      1.1019                 1.1031                 1.1050
 Frc consts  --      6.3197                 6.3431                 6.3613
 IR Inten    --     62.3624                54.2922                59.2089

                     85                     86                     87
                      A                      A                      A
 Frequencies --   3136.8370              3138.3928              3140.8235
 Red. masses --      1.0963                 1.0975                 1.0995
 Frc consts  --      6.3556                 6.3690                 6.3902
 IR Inten    --     44.5535                32.3018                44.6947

 - Thermochemistry -
 -------------------
 Temperature   298.150 Kelvin.  Pressure   1.00000 Atm.
 Atom     1 has atomic number  6 and mass  12.00000

 Molecular mass:   186.12559 amu.
 Principal axes and moments of inertia in atomic units:
                           1         2         3
     Eigenvalues --  1110.355323931.146144068.57715
           X            0.99986  -0.00236  -0.01661
           Y            0.00231   0.99999  -0.00261
           Z            0.01661   0.00257   0.99986
 This molecule is an asymmetric top.
 Rotational symmetry number  1.
 Warning -- assumption of classical behavior for rotation
           may cause significant error
 Rotational temperatures (Kelvin)      0.07801     0.02203     0.02129
 Rotational constants (GHZ):           1.62537     0.45909     0.44358
    1 imaginary frequencies ignored.
 Zero-point vibrational energy     737098.6 (Joules/Mol)
                                  176.17080 (Kcal/Mol)
 Warning -- explicit consideration of  16 degrees of freedom as
           vibrations may cause significant error
 Vibrational temperatures:     71.60   103.79   203.11   252.98   349.07
          (Kelvin)            358.35   399.84   486.85   564.68   597.51
                              621.72   632.67   735.35   748.83   762.06
                              810.57   959.70  1073.26  1199.36  1209.62
                             1226.73  1252.21  1264.45  1295.88  1301.30
                             1311.12  1349.93  1363.23  1460.48  1486.99
                             1494.07  1521.93  1530.63  1537.97  1558.37
                             1579.99  1641.42  1668.46  1694.31  1708.97
                             1741.78  1757.27  1780.30  1785.95  1843.80
                             1865.86  1895.89  1921.59  1949.18  1954.14
                             1965.65  1989.20  1994.99  2000.88  2007.11
                             2014.29  2027.86  2050.98  2058.61  2080.30
                             2113.57  2115.94  2119.81  2128.42  2140.69
                             2143.46  2163.19  2168.06  4357.76  4382.89
                             4404.92  4410.92  4413.65  4416.93  4424.43
                             4425.27  4427.32  4475.11  4483.98  4485.13
                             4488.95  4494.91  4497.34  4513.21  4515.45
                             4518.94

 Zero-point correction=                           0.280746 (Hartree/Particle)
 Thermal correction to Energy=                    0.291586
 Thermal correction to Enthalpy=                  0.292530
 Thermal correction to Gibbs Free Energy=         0.243800
 Sum of electronic and zero-point Energies=           -617.226783
 Sum of electronic and thermal Energies=              -617.215943
 Sum of electronic and thermal Enthalpies=            -617.214999
 Sum of electronic and thermal Free Energies=         -617.263728

                     E (Thermal)             CV                S
                      KCal/Mol        Cal/Mol-Kelvin    Cal/Mol-Kelvin
 Total                  182.973             44.526            102.561
 Electronic               0.000              0.000              0.000
 Translational            0.889              2.981             41.570
 Rotational               0.889              2.981             31.252
 Vibrational            181.196             38.564             29.739
 Vibration     1          0.595              1.978              4.827
 Vibration     2          0.598              1.967              4.094
 Vibration     3          0.615              1.912              2.788
 Vibration     4          0.628              1.872              2.372
 Vibration     5          0.659              1.775              1.784
 Vibration     6          0.662              1.764              1.737
 Vibration     7          0.679              1.714              1.547
 Vibration     8          0.719              1.599              1.220
 Vibration     9          0.760              1.486              0.991
 Vibration    10          0.779              1.437              0.908
 Vibration    11          0.793              1.400              0.852
 Vibration    12          0.800              1.384              0.827
 Vibration    13          0.866              1.225              0.631
 Vibration    14          0.875              1.205              0.609
 Vibration    15          0.885              1.184              0.588
 Vibration    16          0.919              1.111              0.517

 Optimization completed.
    -- Stationary point found.
 Normal termination of Gaussian 16 at Fri Mar  8 14:12:08 2019.
