 Gaussian 16, Revision B.01,
 Gaussian 16:  ES64L-G16RevB.01 20-Dec-2017

 ----------------------------------------------------------------------
 #M062X/6-311++G(2d,2p) opt=ModRedundant freq=noraman SCRF=(SMD,solvent
 =water)
 ----------------------------------------------------------------------

 --------------------------------
 4c1_a1_a4_4c1_PHI.inp_extract_22
 --------------------------------
 Symbolic Z-matrix:
 Charge =  0 Multiplicity = 1

 SCF Done:  E(RM062X) =  -617.504612038     A.U. after   12 cycles
 SCF Done:  E(RM062X) =  -617.506600070     A.U. after   10 cycles
 SCF Done:  E(RM062X) =  -617.506911707     A.U. after   11 cycles
 SCF Done:  E(RM062X) =  -617.507049183     A.U. after    9 cycles
 SCF Done:  E(RM062X) =  -617.507057985     A.U. after    8 cycles
 SCF Done:  E(RM062X) =  -617.507058485     A.U. after    8 cycles
 Optimization completed.
    -- Stationary point found.
 Normal termination of Gaussian 16 at Fri Mar  8 21:03:26 2019.

 ----------------------------------------------------------------------
 #N Geom=AllCheck Guess=TCheck SCRF=Check GenChk RM062X/6-311++G(2d,2p)
  Freq
 ----------------------------------------------------------------------

 Structure from the checkpoint file:  "4c1_a1_a4_4c1_PHI.inp_extract_22.chk"
 --------------------------------
 4c1_a1_a4_4c1_PHI.inp_extract_22
 --------------------------------
 Charge =  0 Multiplicity = 1

                         Standard orientation:
 ---------------------------------------------------------------------
 Center     Atomic      Atomic             Coordinates (Angstroms)
 Number     Number       Type             X           Y           Z
 ---------------------------------------------------------------------
      1          6           0        1.815261   -0.740758   -1.308094
      2          6           0       -0.986459    0.274905    0.863605
      3          6           0        0.872755    0.275806   -0.692415
      4          6           0       -3.473415   -0.054212   -0.546058
      5          6           0        3.507982   -0.316000    0.275360
      6          8           0        2.692032   -1.309467   -0.344826
      7          6           0       -2.902660   -1.235226    0.233186
      8          6           0       -2.336177    0.822715   -1.031413
      9          6           0       -2.028724   -0.706615    1.366120
     10          6           0        2.663361    0.714659    1.005098
     11          8           0       -1.523760    1.296181    0.054509
     12          8           0        0.030272   -0.457861    0.200213
     13          6           0        1.673930    1.354378    0.033731
     14          1           0        2.396992   -0.250059   -2.095513
     15          1           0        1.252280   -1.564464   -1.743528
     16          1           0       -0.537662    0.812713    1.702078
     17          1           0        0.279726    0.719306   -1.491736
     18          1           0       -4.135320    0.532291    0.095568
     19          1           0       -4.051754   -0.388185   -1.407796
     20          1           0        4.169672   -0.847318    0.956196
     21          1           0        4.116713    0.173007   -0.494289
     22          1           0       -2.307736   -1.859086   -0.437668
     23          1           0       -3.698769   -1.859295    0.637240
     24          1           0       -2.697299    1.718381   -1.531625
     25          1           0       -1.714798    0.261132   -1.734694
     26          1           0       -2.649345   -0.175751    2.090263
     27          1           0       -1.515683   -1.509613    1.894396
     28          1           0        3.317107    1.468582    1.443909
     29          1           0        2.127709    0.225535    1.821298
     30          1           0        1.006562    2.048167    0.543868
     31          1           0        2.218127    1.925912   -0.721857
 ---------------------------------------------------------------------

 SCF Done:  E(RM062X) =  -617.507058485     A.U. after    1 cycles

 The electronic state is 1-A.
 Alpha  occ. eigenvalues --  -19.63413 -19.62919 -19.62858 -10.63159 -10.58139
 Alpha  occ. eigenvalues --  -10.57516 -10.57447 -10.57292 -10.52512 -10.52395
 Alpha  occ. eigenvalues --  -10.52376 -10.52264 -10.52260  -1.19779  -1.16158
 Alpha  occ. eigenvalues --   -1.12917  -0.90534  -0.89108  -0.87062  -0.84027
 Alpha  occ. eigenvalues --   -0.74314  -0.73580  -0.72293  -0.70742  -0.65600
 Alpha  occ. eigenvalues --   -0.62199  -0.59326  -0.58095  -0.57028  -0.55313
 Alpha  occ. eigenvalues --   -0.53289  -0.52732  -0.51669  -0.50743  -0.49449
 Alpha  occ. eigenvalues --   -0.47072  -0.46456  -0.46105  -0.45319  -0.44821
 Alpha  occ. eigenvalues --   -0.43537  -0.42496  -0.40178  -0.39550  -0.38954
 Alpha  occ. eigenvalues --   -0.38030  -0.37367  -0.35703  -0.34677  -0.33098
 Alpha  occ. eigenvalues --   -0.32060
 Alpha virt. eigenvalues --    0.00326   0.01317   0.01340   0.01561   0.02750
 Alpha virt. eigenvalues --    0.02939   0.03137   0.03838   0.03998   0.05024
 Alpha virt. eigenvalues --    0.05163   0.05359   0.05910   0.06422   0.07583

 Mulliken charges:
               1
     1  C   -0.471773
     2  C   -0.014919
     3  C    0.131203
     4  C   -0.405003
     5  C   -0.233681
     6  O   -0.370875
     7  C   -0.299314
     8  C   -0.109525
     9  C   -0.460543
    10  C   -0.300828
    11  O   -0.303875
    12  O   -0.353043
    13  C   -0.324983
    14  H    0.204584
    15  H    0.207465
    16  H    0.255675
    17  H    0.239981
    18  H    0.169989
    19  H    0.183385
    20  H    0.209686
    21  H    0.157080
    22  H    0.168750
    23  H    0.189975
    24  H    0.213769
    25  H    0.140170
    26  H    0.202399
    27  H    0.189213
    28  H    0.182889
    29  H    0.162498
    30  H    0.203763
    31  H    0.235890
 Sum of Mulliken charges =  -0.00000

 Dipole moment (field-independent basis, Debye):
    X=             -1.1615    Y=              2.0850    Z=             -1.0972  Tot=              2.6268
 Quadrupole moment (field-independent basis, Debye-Ang):
   XX=            -71.1677   YY=            -87.2550   ZZ=            -73.2641
   XY=              9.6688   XZ=              1.2913   YZ=             -0.9132

  Exact polarizability: 180.600   0.858 168.320   2.439  -0.788 174.188
 Approx polarizability: 144.384   0.123 141.653   1.432  -0.713 144.085

                      1                      2                      3
                      A                      A                      A
 Frequencies --     52.6234                75.4460               105.2660
 Red. masses --      3.7860                 3.5197                 3.4797
 Frc consts  --      0.0062                 0.0118                 0.0227
 IR Inten    --      0.3709                 5.7694                 2.9961

                      4                      5                      6
                      A                      A                      A
 Frequencies --    152.7080               181.1073               224.3107
 Red. masses --      3.6322                 3.0215                 3.9081
 Frc consts  --      0.0499                 0.0584                 0.1159
 IR Inten    --      0.1773                 0.6433                25.1544

                      7                      8                      9
                      A                      A                      A
 Frequencies --    262.0313               278.5697               345.6476
 Red. masses --      3.1374                 2.0648                 2.1027
 Frc consts  --      0.1269                 0.0944                 0.1480
 IR Inten    --      0.3221                 5.5997                 6.4715

                     10                     11                     12
                      A                      A                      A
 Frequencies --    382.8907               402.5785               434.8968
 Red. masses --      2.0079                 2.3653                 2.7108
 Frc consts  --      0.1734                 0.2259                 0.3021
 IR Inten    --      0.5087                 9.7177                15.4581

                     13                     14                     15
                      A                      A                      A
 Frequencies --    442.3970               492.2644               524.0677
 Red. masses --      2.6915                 3.5692                 2.4102
 Frc consts  --      0.3104                 0.5096                 0.3900
 IR Inten    --      1.2904                 7.8475                 7.5395

                     16                     17                     18
                      A                      A                      A
 Frequencies --    540.4151               592.3607               684.4290
 Red. masses --      2.5428                 2.7538                 2.7107
 Frc consts  --      0.4375                 0.5693                 0.7481
 IR Inten    --      6.2286                 3.4324                 4.2831

                     19                     20                     21
                      A                      A                      A
 Frequencies --    749.5514               827.1343               844.2742
 Red. masses --      2.6530                 1.8078                 3.5778
 Frc consts  --      0.8782                 0.7287                 1.5026
 IR Inten    --      4.9774                 1.4239                13.6416

                     22                     23                     24
                      A                      A                      A
 Frequencies --    847.2512               866.1727               880.1376
 Red. masses --      2.6423                 2.1077                 1.6475
 Frc consts  --      1.1175                 0.9317                 0.7519
 IR Inten    --      2.9231                 3.6298                11.9178

                     25                     26                     27
                      A                      A                      A
 Frequencies --    904.6628               910.3609               915.9374
 Red. masses --      2.3719                 2.2963                 2.4815
 Frc consts  --      1.1437                 1.1213                 1.2266
 IR Inten    --     24.9573                 5.2569                82.3117

                     28                     29                     30
                      A                      A                      A
 Frequencies --    932.2397               945.4140              1004.2137
 Red. masses --      1.9542                 1.5901                 2.0176
 Frc consts  --      1.0006                 0.8374                 1.1988
 IR Inten    --     14.0750                24.9305                51.9353

                     31                     32                     33
                      A                      A                      A
 Frequencies --   1031.5998              1038.0818              1055.3471
 Red. masses --      2.0684                 2.2882                 1.8453
 Frc consts  --      1.2969                 1.4528                 1.2109
 IR Inten    --     46.6331                37.9090                17.9491

                     34                     35                     36
                      A                      A                      A
 Frequencies --   1065.6239              1073.1625              1076.7550
 Red. masses --      1.5619                 1.9626                 2.2182
 Frc consts  --      1.0450                 1.3317                 1.5152
 IR Inten    --     42.4363                39.2203               206.1577

                     37                     38                     39
                      A                      A                      A
 Frequencies --   1093.1572              1146.1340              1164.4565
 Red. masses --      1.6315                 2.8044                 2.4124
 Frc consts  --      1.1487                 2.1705                 1.9273
 IR Inten    --     18.0864               162.5580                43.1215

                     40                     41                     42
                      A                      A                      A
 Frequencies --   1171.0074              1197.3693              1213.5887
 Red. masses --      2.4758                 1.9799                 1.4756
 Frc consts  --      2.0002                 1.6724                 1.2805
 IR Inten    --     98.4985                83.3897                20.6561

                     43                     44                     45
                      A                      A                      A
 Frequencies --   1222.7310              1238.0576              1257.3109
 Red. masses --      1.3716                 1.7582                 2.2747
 Frc consts  --      1.2082                 1.5878                 2.1186
 IR Inten    --     58.4853                28.9845               202.0417

                     46                     47                     48
                      A                      A                      A
 Frequencies --   1287.6143              1296.7695              1327.2681
 Red. masses --      1.2538                 1.1292                 1.1764
 Frc consts  --      1.2247                 1.1188                 1.2210
 IR Inten    --     56.9329                13.8513                35.5870

                     49                     50                     51
                      A                      A                      A
 Frequencies --   1337.0444              1358.0477              1362.5442
 Red. masses --      1.2290                 1.3980                 1.4134
 Frc consts  --      1.2945                 1.5191                 1.5460
 IR Inten    --     13.8170                 4.1789                 3.1479

                     52                     53                     54
                      A                      A                      A
 Frequencies --   1365.8551              1379.0746              1386.2257
 Red. masses --      1.5514                 1.4277                 1.5142
 Frc consts  --      1.7052                 1.5997                 1.7143
 IR Inten    --      8.3471                18.8415                 3.9954

                     55                     56                     57
                      A                      A                      A
 Frequencies --   1393.5607              1398.7984              1406.3202
 Red. masses --      1.4871                 1.5454                 1.4118
 Frc consts  --      1.7015                 1.7816                 1.6451
 IR Inten    --      4.9088                30.4121                 3.8165

                     58                     59                     60
                      A                      A                      A
 Frequencies --   1418.1344              1426.2709              1430.1827
 Red. masses --      1.3809                 1.2492                 1.4112
 Frc consts  --      1.6362                 1.4972                 1.7006
 IR Inten    --      5.2936                 0.6546                 9.4482

                     61                     62                     63
                      A                      A                      A
 Frequencies --   1454.3849              1469.9209              1471.6723
 Red. masses --      1.4066                 1.1055                 1.0919
 Frc consts  --      1.7530                 1.4073                 1.3933
 IR Inten    --     22.0316                 5.8834                 7.7480

                     64                     65                     66
                      A                      A                      A
 Frequencies --   1473.8028              1485.3652              1488.4704
 Red. masses --      1.0894                 1.1079                 1.0903
 Frc consts  --      1.3942                 1.4402                 1.4232
 IR Inten    --      9.8922                18.6993                 2.8765

                     67                     68                     69
                      A                      A                      A
 Frequencies --   1490.8783              1503.0710              1505.9278
 Red. masses --      1.1387                 1.0987                 1.1015
 Frc consts  --      1.4912                 1.4624                 1.4718
 IR Inten    --     25.9974                 6.1543                 7.6481

                     70                     71                     72
                      A                      A                      A
 Frequencies --   3028.4926              3047.1735              3057.3688
 Red. masses --      1.0701                 1.0675                 1.0690
 Frc consts  --      5.7827                 5.8398                 5.8873
 IR Inten    --     74.7570                61.5460                45.3852

                     73                     74                     75
                      A                      A                      A
 Frequencies --   3066.3463              3068.6410              3071.3314
 Red. masses --      1.0658                 1.0755                 1.0641
 Frc consts  --      5.9043                 5.9671                 5.9143
 IR Inten    --     28.9063                49.8104                52.8241

                     76                     77                     78
                      A                      A                      A
 Frequencies --   3071.9437              3075.9801              3084.3580
 Red. masses --      1.0680                 1.0623                 1.0675
 Frc consts  --      5.9382                 5.9221                 5.9837
 IR Inten    --     10.6194                37.2520                62.7977

                     79                     80                     81
                      A                      A                      A
 Frequencies --   3111.4129              3118.5686              3121.4637
 Red. masses --      1.0844                 1.0972                 1.0989
 Frc consts  --      6.1851                 6.2870                 6.3086
 IR Inten    --     62.2918                35.8633                39.3240

                     82                     83                     84
                      A                      A                      A
 Frequencies --   3121.9798              3125.8398              3131.9013
 Red. masses --      1.1026                 1.1017                 1.1033
 Frc consts  --      6.3319                 6.3421                 6.3759
 IR Inten    --     67.3640                49.0355                42.1001

                     85                     86                     87
                      A                      A                      A
 Frequencies --   3135.7542              3137.5725              3142.5113
 Red. masses --      1.0969                 1.0966                 1.0986
 Frc consts  --      6.3550                 6.3605                 6.3921
 IR Inten    --     43.2782                36.6142                38.3666

 - Thermochemistry -
 -------------------
 Temperature   298.150 Kelvin.  Pressure   1.00000 Atm.
 Atom     1 has atomic number  6 and mass  12.00000

 Molecular mass:   186.12559 amu.
 Principal axes and moments of inertia in atomic units:
                           1         2         3
     Eigenvalues --  1004.900573941.559844044.27295
           X            0.99984   0.01733   0.00366
           Y           -0.01718   0.99913  -0.03813
           Z           -0.00432   0.03806   0.99927
 This molecule is an asymmetric top.
 Rotational symmetry number  1.
 Warning -- assumption of classical behavior for rotation
           may cause significant error
 Rotational temperatures (Kelvin)      0.08619     0.02197     0.02142
 Rotational constants (GHZ):           1.79594     0.45787     0.44625
 Zero-point vibrational energy     738583.9 (Joules/Mol)
                                  176.52579 (Kcal/Mol)
 Warning -- explicit consideration of  17 degrees of freedom as
           vibrations may cause significant error
 Vibrational temperatures:     75.71   108.55   151.45   219.71   260.57
          (Kelvin)            322.73   377.00   400.80   497.31   550.89
                              579.22   625.72   636.51   708.26   754.02
                              777.54   852.27   984.74  1078.44  1190.06
                             1214.72  1219.01  1246.23  1266.32  1301.61
                             1309.81  1317.83  1341.28  1360.24  1444.84
                             1484.24  1493.57  1518.41  1533.20  1544.04
                             1549.21  1572.81  1649.03  1675.39  1684.82
                             1722.75  1746.08  1759.24  1781.29  1808.99
                             1852.59  1865.76  1909.64  1923.71  1953.93
                             1960.40  1965.16  1984.18  1994.47  2005.02
                             2012.56  2023.38  2040.38  2052.09  2057.71
                             2092.54  2114.89  2117.41  2120.47  2137.11
                             2141.58  2145.04  2162.58  2166.69  4357.33
                             4384.20  4398.87  4411.79  4415.09  4418.96
                             4419.84  4425.65  4437.70  4476.63  4486.92
                             4491.09  4491.83  4497.39  4506.11  4511.65
                             4514.27  4521.37

 Zero-point correction=                           0.281312 (Hartree/Particle)
 Thermal correction to Energy=                    0.292829
 Thermal correction to Enthalpy=                  0.293774
 Thermal correction to Gibbs Free Energy=         0.243684
 Sum of electronic and zero-point Energies=           -617.225747
 Sum of electronic and thermal Energies=              -617.214229
 Sum of electronic and thermal Enthalpies=            -617.213285
 Sum of electronic and thermal Free Energies=         -617.263374

                     E (Thermal)             CV                S
                      KCal/Mol        Cal/Mol-Kelvin    Cal/Mol-Kelvin
 Total                  183.753             46.367            105.422
 Electronic               0.000              0.000              0.000
 Translational            0.889              2.981             41.570
 Rotational               0.889              2.981             31.150
 Vibrational            181.976             40.406             32.702
 Vibration     1          0.596              1.977              4.716
 Vibration     2          0.599              1.965              4.006
 Vibration     3          0.605              1.945              3.354
 Vibration     4          0.619              1.900              2.638
 Vibration     5          0.630              1.865              2.317
 Vibration     6          0.649              1.804              1.924
 Vibration     7          0.669              1.742              1.648
 Vibration     8          0.679              1.713              1.542
 Vibration     9          0.724              1.584              1.186
 Vibration    10          0.752              1.507              1.028
 Vibration    11          0.768              1.465              0.953
 Vibration    12          0.795              1.394              0.843
 Vibration    13          0.802              1.378              0.819
 Vibration    14          0.848              1.267              0.678
 Vibration    15          0.879              1.197              0.601
 Vibration    16          0.895              1.161              0.564
 Vibration    17          0.950              1.048              0.463

 Optimization completed.
    -- Stationary point found.
 Normal termination of Gaussian 16 at Fri Mar  8 22:07:30 2019.
