 Gaussian 16, Revision B.01,
 Gaussian 16:  ES64L-G16RevB.01 20-Dec-2017

 ----------------------------------------------------------------------
 #M062X/6-311++G(2d,2p) opt=ModRedundant freq=noraman SCRF=(SMD,solvent
 =water)
 ----------------------------------------------------------------------

 --------------------------------
 4c1_a1_a4_4c1_PHI.inp_extract_11
 --------------------------------
 Symbolic Z-matrix:
 Charge =  0 Multiplicity = 1

 SCF Done:  E(RM062X) =  -617.497005739     A.U. after   12 cycles
 SCF Done:  E(RM062X) =  -617.497896984     A.U. after   10 cycles
 SCF Done:  E(RM062X) =  -617.498776238     A.U. after   11 cycles
 SCF Done:  E(RM062X) =  -617.498999016     A.U. after   10 cycles
 SCF Done:  E(RM062X) =  -617.499025344     A.U. after    9 cycles
 SCF Done:  E(RM062X) =  -617.499027015     A.U. after    8 cycles
 SCF Done:  E(RM062X) =  -617.499027352     A.U. after    7 cycles
 Optimization completed.
    -- Stationary point found.
 Normal termination of Gaussian 16 at Fri Mar  8 17:34:05 2019.

 ----------------------------------------------------------------------
 #N Geom=AllCheck Guess=TCheck SCRF=Check GenChk RM062X/6-311++G(2d,2p)
  Freq
 ----------------------------------------------------------------------

 Structure from the checkpoint file:  "4c1_a1_a4_4c1_PHI.inp_extract_11.chk"
 --------------------------------
 4c1_a1_a4_4c1_PHI.inp_extract_11
 --------------------------------
 Charge =  0 Multiplicity = 1

                         Standard orientation:
 ---------------------------------------------------------------------
 Center     Atomic      Atomic             Coordinates (Angstroms)
 Number     Number       Type             X           Y           Z
 ---------------------------------------------------------------------
      1          6           0       -1.776628   -1.326183    0.276806
      2          6           0        1.123581   -0.443581   -1.037142
      3          6           0       -0.789800   -0.198021    0.544987
      4          6           0        3.356336    0.397066    0.636695
      5          6           0       -3.559671    0.162813   -0.114994
      6          8           0       -2.799159   -0.930731   -0.627620
      7          6           0        2.480677   -0.750144    1.130769
      8          6           0        2.519890    1.313918   -0.231219
      9          6           0        1.761798   -1.416195   -0.046586
     10          6           0       -2.685975    1.386936    0.093916
     11          8           0        2.013256    0.604100   -1.365253
     12          8           0       -0.110650    0.150332   -0.662234
     13          6           0       -1.529733    1.041871    1.031045
     14          1           0       -2.223872   -1.646022    1.224912
     15          1           0       -1.270037   -2.175368   -0.179544
     16          1           0        0.950494   -0.956324   -1.982620
     17          1           0       -0.091123   -0.528658    1.307789
     18          1           0        4.190103    0.013253    0.044268
     19          1           0        3.770365    0.960401    1.473139
     20          1           0       -4.348369    0.352084   -0.840137
     21          1           0       -4.020837   -0.139974    0.832494
     22          1           0        1.768478   -0.352501    1.855018
     23          1           0        3.077286   -1.498620    1.651693
     24          1           0        3.102608    2.137876   -0.636560
     25          1           0        1.684254    1.729989    0.340961
     26          1           0        2.500846   -1.965957   -0.632577
     27          1           0        1.024721   -2.144715    0.289287
     28          1           0       -3.289806    2.193807    0.509509
     29          1           0       -2.305241    1.722825   -0.872044
     30          1           0       -0.827372    1.870637    1.122355
     31          1           0       -1.922917    0.826783    2.027248
 ---------------------------------------------------------------------

 SCF Done:  E(RM062X) =  -617.499027352     A.U. after    1 cycles

 The electronic state is 1-A.
 Alpha  occ. eigenvalues --  -19.63009 -19.62851 -19.62704 -10.63477 -10.58256
 Alpha  occ. eigenvalues --  -10.57340 -10.57281 -10.57262 -10.52876 -10.52559
 Alpha  occ. eigenvalues --  -10.52546 -10.52247 -10.52196  -1.19389  -1.16136
 Alpha  occ. eigenvalues --   -1.12850  -0.89928  -0.89683  -0.86461  -0.84490
 Alpha  occ. eigenvalues --   -0.74259  -0.73632  -0.72813  -0.70493  -0.65967
 Alpha  occ. eigenvalues --   -0.61750  -0.59243  -0.58415  -0.56785  -0.55075
 Alpha  occ. eigenvalues --   -0.54230  -0.52787  -0.51612  -0.49974  -0.49356
 Alpha  occ. eigenvalues --   -0.48442  -0.46560  -0.45483  -0.45414  -0.44696
 Alpha  occ. eigenvalues --   -0.43076  -0.42184  -0.40501  -0.38980  -0.38817
 Alpha  occ. eigenvalues --   -0.38043  -0.36864  -0.36510  -0.35251  -0.32933
 Alpha  occ. eigenvalues --   -0.31424
 Alpha virt. eigenvalues --    0.00311   0.01283   0.01416   0.01579   0.02741
 Alpha virt. eigenvalues --    0.03019   0.03190   0.03730   0.03949   0.05080
 Alpha virt. eigenvalues --    0.05254   0.05397   0.06057   0.06385   0.07665

 Mulliken charges:
               1
     1  C   -0.397540
     2  C    0.034146
     3  C    0.086172
     4  C   -0.339963
     5  C   -0.191024
     6  O   -0.364561
     7  C   -0.274387
     8  C   -0.218603
     9  C   -0.383804
    10  C   -0.290332
    11  O   -0.309442
    12  O   -0.406686
    13  C   -0.478391
    14  H    0.203868
    15  H    0.210704
    16  H    0.272335
    17  H    0.239920
    18  H    0.174210
    19  H    0.172006
    20  H    0.212268
    21  H    0.150545
    22  H    0.166503
    23  H    0.194431
    24  H    0.229597
    25  H    0.133157
    26  H    0.230910
    27  H    0.179892
    28  H    0.189350
    29  H    0.174196
    30  H    0.178110
    31  H    0.222413
 Sum of Mulliken charges =  -0.00000

 Dipole moment (field-independent basis, Debye):
    X=              0.9911    Y=             -0.7589    Z=              5.6593  Tot=              5.7954
 Quadrupole moment (field-independent basis, Debye-Ang):
   XX=            -75.9920   YY=            -76.7875   ZZ=            -83.7316
   XY=             -5.9148   XZ=             -1.3768   YZ=              1.2609

  Exact polarizability: 181.714  -0.926 172.541  -0.793   0.638 168.803
 Approx polarizability: 145.813  -0.783 141.678  -1.387   0.573 142.818

 ******    1 imaginary frequencies (negative Signs) ******

                      1                      2                      3
                      A                      A                      A
 Frequencies --    -58.5048                45.1927               101.4886
 Red. masses --      4.0531                 3.8574                 3.4489
 Frc consts  --      0.0082                 0.0046                 0.0209
 IR Inten    --      2.9978                 0.9995                 0.4596

                      4                      5                      6
                      A                      A                      A
 Frequencies --    146.7503               189.9567               214.2257
 Red. masses --      4.0992                 2.7823                 3.3138
 Frc consts  --      0.0520                 0.0592                 0.0896
 IR Inten    --      4.2379                 5.0436                 5.5742

                      7                      8                      9
                      A                      A                      A
 Frequencies --    254.9189               296.3857               347.0778
 Red. masses --      2.4027                 2.7359                 2.0719
 Frc consts  --      0.0920                 0.1416                 0.1471
 IR Inten    --      1.1859                 3.9676                 4.1715

                     10                     11                     12
                      A                      A                      A
 Frequencies --    384.0555               405.6275               432.9263
 Red. masses --      2.2085                 2.3782                 2.5149
 Frc consts  --      0.1919                 0.2305                 0.2777
 IR Inten    --      2.7871                19.4781                 1.9119

                     13                     14                     15
                      A                      A                      A
 Frequencies --    436.8877               492.9602               524.0947
 Red. masses --      2.9489                 3.4491                 2.1827
 Frc consts  --      0.3316                 0.4938                 0.3532
 IR Inten    --      7.7503                 9.5825                 0.8958

                     16                     17                     18
                      A                      A                      A
 Frequencies --    526.0779               551.5955               681.7179
 Red. masses --      3.9435                 2.0812                 2.6275
 Frc consts  --      0.6430                 0.3731                 0.7195
 IR Inten    --     10.0706                 6.1001                 9.7668

                     19                     20                     21
                      A                      A                      A
 Frequencies --    750.8347               806.7657               839.6161
 Red. masses --      2.6010                 2.3014                 2.1304
 Frc consts  --      0.8639                 0.8826                 0.8849
 IR Inten    --     11.3187                 4.8706                 5.9363

                     22                     23                     24
                      A                      A                      A
 Frequencies --    855.1612               867.1354               875.9066
 Red. masses --      3.3587                 2.2876                 1.6489
 Frc consts  --      1.4472                 1.0135                 0.7454
 IR Inten    --     10.4335                25.9511                20.3347

                     25                     26                     27
                      A                      A                      A
 Frequencies --    903.2036               903.5833               906.5213
 Red. masses --      2.2257                 2.4890                 2.2247
 Frc consts  --      1.0697                 1.1973                 1.0771
 IR Inten    --      7.7535                63.8521                45.8138

                     28                     29                     30
                      A                      A                      A
 Frequencies --    938.3913               943.9261               989.4436
 Red. masses --      2.0043                 1.7872                 1.8751
 Frc consts  --      1.0399                 0.9382                 1.0816
 IR Inten    --     10.3172                 9.5615                11.4703

                     31                     32                     33
                      A                      A                      A
 Frequencies --   1027.2943              1043.9703              1054.0468
 Red. masses --      2.0669                 2.4724                 1.9158
 Frc consts  --      1.2852                 1.5876                 1.2541
 IR Inten    --     23.0946                41.9320                36.3278

                     34                     35                     36
                      A                      A                      A
 Frequencies --   1062.5850              1074.9285              1077.6424
 Red. masses --      2.1496                 2.0888                 1.4314
 Frc consts  --      1.4300                 1.4220                 0.9794
 IR Inten    --    140.8515               195.0875                15.7487

                     37                     38                     39
                      A                      A                      A
 Frequencies --   1098.2979              1145.6347              1157.0797
 Red. masses --      1.6188                 2.7725                 2.1423
 Frc consts  --      1.1505                 2.1439                 1.6899
 IR Inten    --     59.9006               152.9020                43.8861

                     40                     41                     42
                      A                      A                      A
 Frequencies --   1171.7126              1203.0112              1214.1033
 Red. masses --      2.6635                 2.3700                 1.3955
 Frc consts  --      2.1545                 2.0208                 1.2120
 IR Inten    --    142.1645                80.1162                48.4705

                     43                     44                     45
                      A                      A                      A
 Frequencies --   1226.5555              1240.4755              1262.2564
 Red. masses --      1.3754                 1.7847                 2.3191
 Frc consts  --      1.2192                 1.6180                 2.1770
 IR Inten    --     53.1119                38.5085               144.1357

                     46                     47                     48
                      A                      A                      A
 Frequencies --   1291.9016              1298.7254              1320.4298
 Red. masses --      1.2273                 1.1489                 1.1918
 Frc consts  --      1.2069                 1.1417                 1.2242
 IR Inten    --     60.1865                10.5436                27.7881

                     49                     50                     51
                      A                      A                      A
 Frequencies --   1335.3714              1355.6303              1363.2655
 Red. masses --      1.2309                 1.5279                 1.3616
 Frc consts  --      1.2933                 1.6543                 1.4910
 IR Inten    --     18.0901                 1.1138                 4.6363

                     52                     53                     54
                      A                      A                      A
 Frequencies --   1366.0139              1379.5041              1387.4762
 Red. masses --      1.4264                 1.3817                 1.4865
 Frc consts  --      1.5682                 1.5493                 1.6860
 IR Inten    --      2.0008                14.4125                 7.3675

                     55                     56                     57
                      A                      A                      A
 Frequencies --   1391.0864              1400.3122              1405.9613
 Red. masses --      1.6605                 1.3055                 1.3560
 Frc consts  --      1.8932                 1.5083                 1.5793
 IR Inten    --     15.1818                15.0922                 2.7111

                     58                     59                     60
                      A                      A                      A
 Frequencies --   1410.7762              1423.1246              1431.2491
 Red. masses --      1.3957                 1.3066                 1.3524
 Frc consts  --      1.6366                 1.5591                 1.6322
 IR Inten    --     12.4162                12.5333                 7.2523

                     61                     62                     63
                      A                      A                      A
 Frequencies --   1445.6193              1469.4922              1471.8166
 Red. masses --      1.4350                 1.0955                 1.1005
 Frc consts  --      1.7670                 1.3938                 1.4046
 IR Inten    --     28.2810                 8.9738                 4.8125

                     64                     65                     66
                      A                      A                      A
 Frequencies --   1480.4450              1482.6203              1487.5179
 Red. masses --      1.1140                 1.0849                 1.0889
 Frc consts  --      1.4385                 1.4050                 1.4196
 IR Inten    --     11.8495                12.7743                 8.2256

                     67                     68                     69
                      A                      A                      A
 Frequencies --   1495.5525              1502.1621              1505.9660
 Red. masses --      1.1174                 1.1003                 1.0966
 Frc consts  --      1.4725                 1.4628                 1.4653
 IR Inten    --     22.9836                 5.1530                 5.2311

                     70                     71                     72
                      A                      A                      A
 Frequencies --   3030.0415              3037.4496              3048.2425
 Red. masses --      1.0699                 1.0676                 1.0694
 Frc consts  --      5.7875                 5.8036                 5.8546
 IR Inten    --     79.1667                64.8671                53.0564

                     73                     74                     75
                      A                      A                      A
 Frequencies --   3067.4685              3071.6458              3077.0656
 Red. masses --      1.0636                 1.0626                 1.0652
 Frc consts  --      5.8963                 5.9071                 5.9423
 IR Inten    --     39.6505                36.4492                21.0003

                     76                     77                     78
                      A                      A                      A
 Frequencies --   3078.3480              3080.8318              3105.9637
 Red. masses --      1.0613                 1.0640                 1.0869
 Frc consts  --      5.9252                 5.9500                 6.1779
 IR Inten    --     29.7126                16.4792                82.1964

                     79                     80                     81
                      A                      A                      A
 Frequencies --   3116.7191              3117.6160              3123.0516
 Red. masses --      1.0984                 1.1009                 1.1028
 Frc consts  --      6.2864                 6.3047                 6.3374
 IR Inten    --     34.1708                33.3357                60.8277

                     82                     83                     84
                      A                      A                      A
 Frequencies --   3125.1491              3129.2981              3133.6410
 Red. masses --      1.1041                 1.0994                 1.0974
 Frc consts  --      6.3534                 6.3431                 6.3491
 IR Inten    --     60.6308                70.4515                14.7440

                     85                     86                     87
                      A                      A                      A
 Frequencies --   3136.8921              3140.2868              3163.0698
 Red. masses --      1.0964                 1.0972                 1.0836
 Frc consts  --      6.3564                 6.3747                 6.3875
 IR Inten    --     48.3804                42.1018                28.0870

 - Thermochemistry -
 -------------------
 Temperature   298.150 Kelvin.  Pressure   1.00000 Atm.
 Atom     1 has atomic number  6 and mass  12.00000

 Molecular mass:   186.12559 amu.
 Principal axes and moments of inertia in atomic units:
                           1         2         3
     Eigenvalues --  1045.371453881.492004079.81233
           X            0.99993  -0.01108   0.00314
           Y            0.01104   0.99986   0.01217
           Z           -0.00327  -0.01214   0.99992
 This molecule is an asymmetric top.
 Rotational symmetry number  1.
 Warning -- assumption of classical behavior for rotation
           may cause significant error
 Rotational temperatures (Kelvin)      0.08285     0.02231     0.02123
 Rotational constants (GHZ):           1.72641     0.46496     0.44236
    1 imaginary frequencies ignored.
 Zero-point vibrational energy     737837.7 (Joules/Mol)
                                  176.34743 (Kcal/Mol)
 Warning -- explicit consideration of  16 degrees of freedom as
           vibrations may cause significant error
 Vibrational temperatures:     65.02   146.02   211.14   273.31   308.22
          (Kelvin)            366.77   426.43   499.37   552.57   583.61
                              622.88   628.58   709.26   754.06   756.91
                              793.62   980.84  1080.28  1160.76  1208.02
                             1230.39  1247.61  1260.23  1299.51  1300.05
                             1304.28  1350.14  1358.10  1423.59  1478.05
                             1502.04  1516.54  1528.82  1546.58  1550.49
                             1580.21  1648.31  1664.78  1685.83  1730.86
                             1746.82  1764.74  1784.77  1816.11  1858.76
                             1868.58  1899.80  1921.30  1950.45  1961.43
                             1965.39  1984.80  1996.27  2001.46  2014.74
                             2022.86  2029.79  2047.56  2059.25  2079.92
                             2114.27  2117.62  2130.03  2133.16  2140.21
                             2151.77  2161.28  2166.75  4359.55  4370.21
                             4385.74  4413.40  4419.41  4427.21  4429.06
                             4432.63  4468.79  4484.26  4485.55  4493.37
                             4496.39  4502.36  4508.61  4513.29  4518.17
                             4550.95

 Zero-point correction=                           0.281028 (Hartree/Particle)
 Thermal correction to Energy=                    0.291828
 Thermal correction to Enthalpy=                  0.292772
 Thermal correction to Gibbs Free Energy=         0.244322
 Sum of electronic and zero-point Energies=           -617.218000
 Sum of electronic and thermal Energies=              -617.207199
 Sum of electronic and thermal Enthalpies=            -617.206255
 Sum of electronic and thermal Free Energies=         -617.254705

                     E (Thermal)             CV                S
                      KCal/Mol        Cal/Mol-Kelvin    Cal/Mol-Kelvin
 Total                  183.125             44.585            101.972
 Electronic               0.000              0.000              0.000
 Translational            0.889              2.981             41.570
 Rotational               0.889              2.981             31.182
 Vibrational            181.348             38.623             29.220
 Vibration     1          0.595              1.979              5.017
 Vibration     2          0.604              1.948              3.426
 Vibration     3          0.617              1.906              2.714
 Vibration     4          0.633              1.854              2.228
 Vibration     5          0.644              1.819              2.007
 Vibration     6          0.665              1.754              1.696
 Vibration     7          0.690              1.680              1.437
 Vibration     8          0.725              1.581              1.179
 Vibration     9          0.753              1.504              1.023
 Vibration    10          0.771              1.458              0.942
 Vibration    11          0.794              1.398              0.849
 Vibration    12          0.797              1.390              0.836
 Vibration    13          0.849              1.266              0.676
 Vibration    14          0.879              1.197              0.601
 Vibration    15          0.881              1.192              0.596
 Vibration    16          0.907              1.136              0.541

 Optimization completed.
    -- Stationary point found.
 Normal termination of Gaussian 16 at Fri Mar  8 18:42:14 2019.
