 Gaussian 16, Revision B.01,
 Gaussian 16:  ES64L-G16RevB.01 20-Dec-2017

 ----------------------------------------------------------------------
 #M062X/6-311++G(2d,2p) opt=ModRedundant freq=noraman SCRF=(SMD,solvent
 =water)
 ----------------------------------------------------------------------

 --------------------------------
 4c1_a1_a4_4c1_PHI.inp_extract_19
 --------------------------------
 Symbolic Z-matrix:
 Charge =  0 Multiplicity = 1

 SCF Done:  E(RM062X) =  -617.492094498     A.U. after   12 cycles
 SCF Done:  E(RM062X) =  -617.492997020     A.U. after   11 cycles
 SCF Done:  E(RM062X) =  -617.493468276     A.U. after   11 cycles
 SCF Done:  E(RM062X) =  -617.494043556     A.U. after   10 cycles
 SCF Done:  E(RM062X) =  -617.494130977     A.U. after    9 cycles
 SCF Done:  E(RM062X) =  -617.494139319     A.U. after    8 cycles
 SCF Done:  E(RM062X) =  -617.494140476     A.U. after    8 cycles
 SCF Done:  E(RM062X) =  -617.494140928     A.U. after    8 cycles
 SCF Done:  E(RM062X) =  -617.494140929     A.U. after    7 cycles
 SCF Done:  E(RM062X) =  -617.494140885     A.U. after    7 cycles
 SCF Done:  E(RM062X) =  -617.494140792     A.U. after    7 cycles
 SCF Done:  E(RM062X) =  -617.494140707     A.U. after    7 cycles
 SCF Done:  E(RM062X) =  -617.494140602     A.U. after    7 cycles
 SCF Done:  E(RM062X) =  -617.494140937     A.U. after    8 cycles
 SCF Done:  E(RM062X) =  -617.494140633     A.U. after    8 cycles
 Optimization completed.
    -- Stationary point found.
 Normal termination of Gaussian 16 at Fri Mar  8 20:24:13 2019.

 ----------------------------------------------------------------------
 #N Geom=AllCheck Guess=TCheck SCRF=Check GenChk RM062X/6-311++G(2d,2p)
  Freq
 ----------------------------------------------------------------------

 Structure from the checkpoint file:  "4c1_a1_a4_4c1_PHI.inp_extract_19.chk"
 --------------------------------
 4c1_a1_a4_4c1_PHI.inp_extract_19
 --------------------------------
 Charge =  0 Multiplicity = 1

                         Standard orientation:
 ---------------------------------------------------------------------
 Center     Atomic      Atomic             Coordinates (Angstroms)
 Number     Number       Type             X           Y           Z
 ---------------------------------------------------------------------
      1          6           0        1.703771   -1.058028   -1.019926
      2          6           0       -1.102627    0.106073    1.092346
      3          6           0        0.766747    0.042876   -0.552598
      4          6           0       -3.378776    0.096045   -0.708199
      5          6           0        3.568217   -0.122980    0.068705
      6          8           0        2.762877   -1.289126   -0.101117
      7          6           0       -2.755772   -1.220034   -0.259196
      8          6           0       -2.308436    1.166041   -0.777064
      9          6           0       -2.149131   -0.994745    1.118298
     10          6           0        2.751179    1.029540    0.624992
     11          8           0       -1.511064    1.270698    0.417131
     12          8           0        0.138849   -0.441191    0.632085
     13          6           0        1.563282    1.320889   -0.291077
     14          1           0        2.117113   -0.777977   -1.995026
     15          1           0        1.162613   -1.997283   -1.119110
     16          1           0       -0.902563    0.447201    2.108432
     17          1           0        0.035675    0.198006   -1.342399
     18          1           0       -4.155697    0.389944    0.001113
     19          1           0       -3.838956    0.014871   -1.693059
     20          1           0        4.375067   -0.404815    0.742058
     21          1           0        4.001003    0.152440   -0.900369
     22          1           0       -1.980217   -1.527237   -0.967457
     23          1           0       -3.499538   -2.014561   -0.221852
     24          1           0       -2.746013    2.154587   -0.900656
     25          1           0       -1.661515    0.979508   -1.635085
     26          1           0       -2.935730   -0.693938    1.813724
     27          1           0       -1.676960   -1.890748    1.518108
     28          1           0        3.388075    1.909146    0.720675
     29          1           0        2.400011    0.766359    1.624563
     30          1           0        0.914956    2.083563    0.136089
     31          1           0        1.926663    1.693826   -1.252225
 ---------------------------------------------------------------------

 SCF Done:  E(RM062X) =  -617.494140633     A.U. after    1 cycles

 The electronic state is 1-A.
 Alpha  occ. eigenvalues --  -19.63555 -19.62836 -19.62191 -10.63415 -10.58159
 Alpha  occ. eigenvalues --  -10.57631 -10.57434 -10.57246 -10.52471 -10.52372
 Alpha  occ. eigenvalues --  -10.52341 -10.52198 -10.52159  -1.19003  -1.16138
 Alpha  occ. eigenvalues --   -1.12687  -0.90485  -0.89390  -0.86979  -0.83984
 Alpha  occ. eigenvalues --   -0.74217  -0.73549  -0.72752  -0.70702  -0.65516
 Alpha  occ. eigenvalues --   -0.62107  -0.59045  -0.57563  -0.56817  -0.55224
 Alpha  occ. eigenvalues --   -0.53228  -0.52672  -0.51952  -0.50595  -0.50274
 Alpha  occ. eigenvalues --   -0.47614  -0.46075  -0.45806  -0.45140  -0.44613
 Alpha  occ. eigenvalues --   -0.43216  -0.42289  -0.40137  -0.39659  -0.39093
 Alpha  occ. eigenvalues --   -0.38114  -0.37057  -0.35988  -0.34668  -0.32637
 Alpha  occ. eigenvalues --   -0.31153
 Alpha virt. eigenvalues --    0.00282   0.01262   0.01342   0.01610   0.02726
 Alpha virt. eigenvalues --    0.03015   0.03110   0.03711   0.03983   0.05034
 Alpha virt. eigenvalues --    0.05174   0.05376   0.06114   0.06259   0.07427

 Mulliken charges:
               1
     1  C   -0.528902
     2  C   -0.184696
     3  C    0.215622
     4  C   -0.405794
     5  C   -0.205832
     6  O   -0.366433
     7  C   -0.258846
     8  C   -0.156832
     9  C   -0.297442
    10  C   -0.304743
    11  O   -0.320094
    12  O   -0.313885
    13  C   -0.383162
    14  H    0.208726
    15  H    0.209129
    16  H    0.246327
    17  H    0.233987
    18  H    0.171678
    19  H    0.189742
    20  H    0.209707
    21  H    0.149820
    22  H    0.158388
    23  H    0.209599
    24  H    0.205075
    25  H    0.165306
    26  H    0.196947
    27  H    0.187789
    28  H    0.185919
    29  H    0.167378
    30  H    0.193735
    31  H    0.221787
 Sum of Mulliken charges =  -0.00000

 Dipole moment (field-independent basis, Debye):
    X=             -2.3785    Y=              1.7017    Z=             -2.9271  Tot=              4.1377
 Quadrupole moment (field-independent basis, Debye-Ang):
   XX=            -71.9482   YY=            -85.3223   ZZ=            -75.5750
   XY=              9.2506   XZ=             -0.6003   YZ=             -0.3610

  Exact polarizability: 180.503   0.207 169.859   1.851  -1.463 172.666
 Approx polarizability: 144.727  -0.479 141.055   1.034  -1.499 144.310

 ******    1 imaginary frequencies (negative Signs) ******

                      1                      2                      3
                      A                      A                      A
 Frequencies --    -92.3599                31.8387                98.7091
 Red. masses --      3.7174                 4.0687                 3.6269
 Frc consts  --      0.0187                 0.0024                 0.0208
 IR Inten    --      8.4249                 0.5702                 1.9251

                      4                      5                      6
                      A                      A                      A
 Frequencies --    109.1642               191.7694               203.9391
 Red. masses --      3.1011                 4.4773                 2.9339
 Frc consts  --      0.0218                 0.0970                 0.0719
 IR Inten    --      1.2831                12.6941                 6.0777

                      7                      8                      9
                      A                      A                      A
 Frequencies --    234.0158               278.8324               330.0126
 Red. masses --      3.3742                 2.2113                 2.0302
 Frc consts  --      0.1089                 0.1013                 0.1303
 IR Inten    --      2.2596                 8.9788                 4.6265

                     10                     11                     12
                      A                      A                      A
 Frequencies --    363.8968               407.3675               433.8680
 Red. masses --      2.1999                 2.1813                 2.4517
 Frc consts  --      0.1716                 0.2133                 0.2719
 IR Inten    --      1.8479                10.5935                 8.4354

                     13                     14                     15
                      A                      A                      A
 Frequencies --    435.6789               475.7636               521.1623
 Red. masses --      2.6762                 3.8681                 2.5932
 Frc consts  --      0.2993                 0.5159                 0.4150
 IR Inten    --      1.1742                 9.4246                 2.6769

                     16                     17                     18
                      A                      A                      A
 Frequencies --    524.8280               576.5536               675.7358
 Red. masses --      2.7657                 2.4390                 2.6942
 Frc consts  --      0.4488                 0.4777                 0.7248
 IR Inten    --      8.7837                 5.7407                 3.0013

                     19                     20                     21
                      A                      A                      A
 Frequencies --    743.5944               803.6733               843.5396
 Red. masses --      2.7348                 2.3954                 2.1661
 Frc consts  --      0.8909                 0.9116                 0.9081
 IR Inten    --      5.1681                10.7650                11.8724

                     22                     23                     24
                      A                      A                      A
 Frequencies --    850.7135               853.6957               877.0730
 Red. masses --      2.2033                 2.7280                 1.6902
 Frc consts  --      0.9395                 1.1714                 0.7660
 IR Inten    --      1.3199                 0.9215                12.0225

                     25                     26                     27
                      A                      A                      A
 Frequencies --    894.5191               899.8808               915.3758
 Red. masses --      2.5113                 2.4678                 2.3799
 Frc consts  --      1.1839                 1.1774                 1.1749
 IR Inten    --     45.1966                35.1857                55.2845

                     28                     29                     30
                      A                      A                      A
 Frequencies --    927.6191               945.3658               985.5925
 Red. masses --      2.0701                 1.4593                 1.9889
 Frc consts  --      1.0495                 0.7684                 1.1383
 IR Inten    --     12.9750                11.4381                48.9282

                     31                     32                     33
                      A                      A                      A
 Frequencies --   1030.5842              1039.2405              1055.1571
 Red. masses --      2.1077                 2.3626                 1.9194
 Frc consts  --      1.3189                 1.5034                 1.2590
 IR Inten    --     29.9224                43.5547                27.9059

                     34                     35                     36
                      A                      A                      A
 Frequencies --   1064.2656              1070.9706              1075.9434
 Red. masses --      1.5545                 1.6694                 2.4137
 Frc consts  --      1.0374                 1.1281                 1.6463
 IR Inten    --     47.4281                13.7834               314.9035

                     37                     38                     39
                      A                      A                      A
 Frequencies --   1092.2142              1142.4281              1148.9965
 Red. masses --      1.7641                 2.2776                 2.6619
 Frc consts  --      1.2399                 1.7514                 2.0705
 IR Inten    --      8.9375                64.5803               187.1230

                     40                     41                     42
                      A                      A                      A
 Frequencies --   1163.7666              1190.6211              1205.2799
 Red. masses --      2.4004                 2.0660                 1.3481
 Frc consts  --      1.9155                 1.7256                 1.1538
 IR Inten    --     58.0579               111.0642                 9.1488

                     43                     44                     45
                      A                      A                      A
 Frequencies --   1221.1306              1236.4976              1264.3244
 Red. masses --      1.3548                 1.8272                 2.4040
 Frc consts  --      1.1903                 1.6460                 2.2642
 IR Inten    --     28.9733                34.9918               230.5823

                     46                     47                     48
                      A                      A                      A
 Frequencies --   1283.7519              1294.1625              1317.5338
 Red. masses --      1.2483                 1.1290                 1.1736
 Frc consts  --      1.2121                 1.1141                 1.2003
 IR Inten    --     43.3750                21.9430                22.3408

                     49                     50                     51
                      A                      A                      A
 Frequencies --   1335.0087              1350.1535              1357.3014
 Red. masses --      1.2511                 1.3805                 1.3933
 Frc consts  --      1.3137                 1.4827                 1.5124
 IR Inten    --     17.6752                23.4748                 3.2436

                     52                     53                     54
                      A                      A                      A
 Frequencies --   1363.1019              1381.9813              1389.1097
 Red. masses --      1.4749                 1.5431                 1.5265
 Frc consts  --      1.6146                 1.7364                 1.7355
 IR Inten    --     10.2866                10.1994                 5.0293

                     55                     56                     57
                      A                      A                      A
 Frequencies --   1391.4214              1393.7332              1405.3133
 Red. masses --      1.7612                 1.3406                 1.4014
 Frc consts  --      2.0089                 1.5343                 1.6306
 IR Inten    --     28.6331                16.0526                 5.2021

                     58                     59                     60
                      A                      A                      A
 Frequencies --   1410.0861              1423.8927              1430.6763
 Red. masses --      1.3522                 1.2682                 1.3691
 Frc consts  --      1.5841                 1.5149                 1.6511
 IR Inten    --      0.6087                 2.9354                 6.0028

                     61                     62                     63
                      A                      A                      A
 Frequencies --   1453.5700              1468.0080              1473.0744
 Red. masses --      1.3449                 1.0893                 1.1036
 Frc consts  --      1.6742                 1.3830                 1.4109
 IR Inten    --     27.0645                 5.4193                 4.6130

                     64                     65                     66
                      A                      A                      A
 Frequencies --   1476.5316              1479.9795              1488.2416
 Red. masses --      1.0879                 1.1210                 1.0942
 Frc consts  --      1.3974                 1.4466                 1.4279
 IR Inten    --     11.2553                15.8258                 2.6664

                     67                     68                     69
                      A                      A                      A
 Frequencies --   1489.0052              1503.3171              1523.7522
 Red. masses --      1.1225                 1.1004                 1.0980
 Frc consts  --      1.4663                 1.4652                 1.5021
 IR Inten    --     20.2188                 6.1180                 8.3397

                     70                     71                     72
                      A                      A                      A
 Frequencies --   3028.5181              3042.7403              3052.6024
 Red. masses --      1.0701                 1.0676                 1.0690
 Frc consts  --      5.7826                 5.8235                 5.8693
 IR Inten    --     76.2990                60.9475                27.0729

                     73                     74                     75
                      A                      A                      A
 Frequencies --   3067.5274              3068.5031              3075.3714
 Red. masses --      1.0680                 1.0642                 1.0661
 Frc consts  --      5.9212                 5.9037                 5.9406
 IR Inten    --     39.0050                27.4308                11.2493

                     76                     77                     78
                      A                      A                      A
 Frequencies --   3076.7718              3080.3062              3092.8205
 Red. masses --      1.0613                 1.0651                 1.0853
 Frc consts  --      5.9191                 5.9545                 6.1168
 IR Inten    --     54.5607                46.6505                95.6388

                     79                     80                     81
                      A                      A                      A
 Frequencies --   3120.9402              3121.9422              3122.2387
 Red. masses --      1.0970                 1.0990                 1.1014
 Frc consts  --      6.2956                 6.3109                 6.3259
 IR Inten    --     34.4961                69.4782                38.9325

                     82                     83                     84
                      A                      A                      A
 Frequencies --   3133.2783              3133.6164              3134.9645
 Red. masses --      1.0954                 1.0995                 1.0966
 Frc consts  --      6.3360                 6.3612                 6.3496
 IR Inten    --     62.6199                15.0288                59.2662

                     85                     86                     87
                      A                      A                      A
 Frequencies --   3135.9353              3137.7044              3146.5386
 Red. masses --      1.0963                 1.0986                 1.0895
 Frc consts  --      6.3519                 6.3723                 6.3552
 IR Inten    --     31.4784                43.9723                56.4702

 - Thermochemistry -
 -------------------
 Temperature   298.150 Kelvin.  Pressure   1.00000 Atm.
 Atom     1 has atomic number  6 and mass  12.00000

 Molecular mass:   186.12559 amu.
 Principal axes and moments of inertia in atomic units:
                           1         2         3
     Eigenvalues --  1025.273623842.112244115.19331
           X            0.99984   0.01760   0.00299
           Y           -0.01756   0.99977  -0.01221
           Z           -0.00321   0.01216   0.99992
 This molecule is an asymmetric top.
 Rotational symmetry number  1.
 Warning -- assumption of classical behavior for rotation
           may cause significant error
 Rotational temperatures (Kelvin)      0.08448     0.02254     0.02105
 Rotational constants (GHZ):           1.76025     0.46973     0.43856
    1 imaginary frequencies ignored.
 Zero-point vibrational energy     736243.1 (Joules/Mol)
                                  175.96631 (Kcal/Mol)
 Warning -- explicit consideration of  16 degrees of freedom as
           vibrations may cause significant error
 Vibrational temperatures:     45.81   142.02   157.06   275.91   293.42
          (Kelvin)            336.70   401.18   474.81   523.57   586.11
                              624.24   626.84   684.52   749.84   755.11
                              829.53   972.23  1069.87  1156.31  1213.67
                             1223.99  1228.28  1261.91  1287.01  1294.73
                             1317.02  1334.64  1360.17  1418.05  1482.78
                             1495.24  1518.14  1531.24  1540.89  1548.04
                             1571.45  1643.70  1653.15  1674.40  1713.04
                             1734.13  1756.93  1779.04  1819.08  1847.03
                             1862.01  1895.64  1920.78  1942.57  1952.85
                             1961.20  1988.36  1998.62  2001.95  2005.27
                             2021.93  2028.80  2048.66  2058.42  2091.36
                             2112.14  2119.43  2124.40  2129.36  2141.25
                             2142.35  2162.94  2192.34  4357.36  4377.82
                             4392.01  4413.49  4414.89  4424.77  4426.79
                             4431.87  4449.88  4490.34  4491.78  4492.21
                             4508.09  4508.58  4510.51  4511.91  4514.46
                             4527.17

 Zero-point correction=                           0.280420 (Hartree/Particle)
 Thermal correction to Energy=                    0.291446
 Thermal correction to Enthalpy=                  0.292390
 Thermal correction to Gibbs Free Energy=         0.243067
 Sum of electronic and zero-point Energies=           -617.213720
 Sum of electronic and thermal Energies=              -617.202695
 Sum of electronic and thermal Enthalpies=            -617.201751
 Sum of electronic and thermal Free Energies=         -617.251073

                     E (Thermal)             CV                S
                      KCal/Mol        Cal/Mol-Kelvin    Cal/Mol-Kelvin
 Total                  182.885             44.895            103.808
 Electronic               0.000              0.000              0.000
 Translational            0.889              2.981             41.570
 Rotational               0.889              2.981             31.161
 Vibrational            181.107             38.934             31.077
 Vibration     1          0.594              1.983              5.711
 Vibration     2          0.604              1.950              3.480
 Vibration     3          0.606              1.942              3.284
 Vibration     4          0.634              1.851              2.211
 Vibration     5          0.640              1.834              2.097
 Vibration     6          0.654              1.789              1.848
 Vibration     7          0.679              1.713              1.541
 Vibration     8          0.713              1.616              1.260
 Vibration     9          0.737              1.547              1.105
 Vibration    10          0.772              1.454              0.936
 Vibration    11          0.795              1.396              0.846
 Vibration    12          0.796              1.392              0.840
 Vibration    13          0.832              1.304              0.722
 Vibration    14          0.876              1.203              0.607
 Vibration    15          0.880              1.195              0.599
 Vibration    16          0.933              1.082              0.492

 Optimization completed.
    -- Stationary point found.
 Normal termination of Gaussian 16 at Fri Mar  8 21:27:27 2019.
