 Gaussian 16, Revision B.01,
 Gaussian 16:  ES64L-G16RevB.01 20-Dec-2017

 ----------------------------------------------------------------------
 #M062X/6-311++G(2d,2p) opt=ModRedundant freq=noraman SCRF=(SMD,solvent
 =water)
 ----------------------------------------------------------------------

 -------------------------------
 4c1_a1_a4_4c1_PHI.inp_extract_3
 -------------------------------
 Symbolic Z-matrix:
 Charge =  0 Multiplicity = 1

 SCF Done:  E(RM062X) =  -617.504704823     A.U. after   12 cycles
 SCF Done:  E(RM062X) =  -617.506532504     A.U. after   10 cycles
 SCF Done:  E(RM062X) =  -617.506660821     A.U. after    9 cycles
 SCF Done:  E(RM062X) =  -617.506671839     A.U. after    9 cycles
 SCF Done:  E(RM062X) =  -617.506673416     A.U. after    8 cycles
 SCF Done:  E(RM062X) =  -617.506673561     A.U. after    7 cycles
 Optimization completed.
    -- Stationary point found.
 Normal termination of Gaussian 16 at Fri Mar  8 14:24:18 2019.

 ----------------------------------------------------------------------
 #N Geom=AllCheck Guess=TCheck SCRF=Check GenChk RM062X/6-311++G(2d,2p)
  Freq
 ----------------------------------------------------------------------

 Structure from the checkpoint file:  "4c1_a1_a4_4c1_PHI.inp_extract_3.chk"
 -------------------------------
 4c1_a1_a4_4c1_PHI.inp_extract_3
 -------------------------------
 Charge =  0 Multiplicity = 1

                         Standard orientation:
 ---------------------------------------------------------------------
 Center     Atomic      Atomic             Coordinates (Angstroms)
 Number     Number       Type             X           Y           Z
 ---------------------------------------------------------------------
      1          6           0       -2.049591   -1.464772   -0.227535
      2          6           0        1.101888    0.010041    0.919418
      3          6           0       -1.172958   -0.719723    0.760523
      4          6           0        3.371279    0.159285   -0.846682
      5          6           0       -3.234524    0.478481   -0.831653
      6          8           0       -2.471256   -0.633010   -1.299764
      7          6           0        2.317362    1.263406   -0.885980
      8          6           0        2.738133   -1.138175   -0.380000
      9          6           0        1.643837    1.360213    0.480705
     10          6           0       -2.410956    1.355594    0.094880
     11          8           0        2.104498   -0.987080    0.897418
     12          8           0        0.034441   -0.372982    0.077172
     13          6           0       -1.890366    0.528054    1.268608
     14          1           0       -2.923708   -1.857296    0.302930
     15          1           0       -1.500638   -2.293553   -0.670398
     16          1           0        0.763665    0.043673    1.954729
     17          1           0       -0.936560   -1.395277    1.587240
     18          1           0        4.171098    0.436354   -0.155616
     19          1           0        3.818296    0.002006   -1.828689
     20          1           0       -3.555858    1.022199   -1.717507
     21          1           0       -4.122430    0.103829   -0.308959
     22          1           0        1.572295    1.029383   -1.650120
     23          1           0        2.765535    2.219871   -1.152409
     24          1           0        3.480291   -1.921777   -0.245247
     25          1           0        2.000843   -1.484751   -1.108600
     26          1           0        2.371118    1.685692    1.227254
     27          1           0        0.820597    2.075266    0.478047
     28          1           0       -3.025661    2.182853    0.449865
     29          1           0       -1.575956    1.780440   -0.466122
     30          1           0       -1.221639    1.115586    1.898913
     31          1           0       -2.727379    0.205660    1.892382
 ---------------------------------------------------------------------

 SCF Done:  E(RM062X) =  -617.506673561     A.U. after    1 cycles

 The electronic state is 1-A.
 Alpha  occ. eigenvalues --  -19.62991 -19.62925 -19.62870 -10.63092 -10.58443
 Alpha  occ. eigenvalues --  -10.57581 -10.57321 -10.57236 -10.52547 -10.52382
 Alpha  occ. eigenvalues --  -10.52342 -10.52307 -10.52186  -1.19632  -1.16221
 Alpha  occ. eigenvalues --   -1.13062  -0.90124  -0.89206  -0.86862  -0.84152
 Alpha  occ. eigenvalues --   -0.74194  -0.72947  -0.72352  -0.71406  -0.66026
 Alpha  occ. eigenvalues --   -0.61995  -0.59411  -0.57624  -0.56844  -0.55063
 Alpha  occ. eigenvalues --   -0.54283  -0.52515  -0.51646  -0.50894  -0.49138
 Alpha  occ. eigenvalues --   -0.47635  -0.46384  -0.45838  -0.45021  -0.44651
 Alpha  occ. eigenvalues --   -0.42703  -0.42482  -0.41542  -0.39707  -0.38836
 Alpha  occ. eigenvalues --   -0.37656  -0.37323  -0.36241  -0.34022  -0.33443
 Alpha  occ. eigenvalues --   -0.31867
 Alpha virt. eigenvalues --    0.00342   0.01295   0.01383   0.01517   0.02747
 Alpha virt. eigenvalues --    0.02995   0.03186   0.03739   0.03802   0.05198
 Alpha virt. eigenvalues --    0.05248   0.05358   0.05946   0.06169   0.07656

 Mulliken charges:
               1
     1  C   -0.445972
     2  C   -0.171104
     3  C    0.175759
     4  C   -0.377891
     5  C   -0.241606
     6  O   -0.356604
     7  C   -0.326134
     8  C   -0.179207
     9  C   -0.250926
    10  C   -0.291503
    11  O   -0.345358
    12  O   -0.348022
    13  C   -0.374814
    14  H    0.196793
    15  H    0.209420
    16  H    0.295604
    17  H    0.259157
    18  H    0.170519
    19  H    0.176307
    20  H    0.205368
    21  H    0.162450
    22  H    0.182893
    23  H    0.186696
    24  H    0.217368
    25  H    0.164829
    26  H    0.198710
    27  H    0.168378
    28  H    0.187538
    29  H    0.156554
    30  H    0.168449
    31  H    0.226349
 Sum of Mulliken charges =   0.00000

 Dipole moment (field-independent basis, Debye):
    X=             -1.0925    Y=              2.1319    Z=              2.2800  Tot=              3.3071
 Quadrupole moment (field-independent basis, Debye-Ang):
   XX=            -71.8271   YY=            -77.3624   ZZ=            -82.3975
   XY=              0.5751   XZ=            -10.3005   YZ=              0.2221

  Exact polarizability: 180.800  -2.591 172.419  -2.247  -0.277 169.393
 Approx polarizability: 145.713  -1.936 141.080  -1.290  -0.368 142.625

 ******    1 imaginary frequencies (negative Signs) ******

                      1                      2                      3
                      A                      A                      A
 Frequencies --    -36.1015                63.8583                75.5754
 Red. masses --      3.7703                 3.5778                 3.8502
 Frc consts  --      0.0029                 0.0086                 0.0130
 IR Inten    --      4.4744                 0.6728                 3.5884

                      4                      5                      6
                      A                      A                      A
 Frequencies --    142.2389               180.6820               234.5189
 Red. masses --      3.3563                 3.4618                 2.7088
 Frc consts  --      0.0400                 0.0666                 0.0878
 IR Inten    --      1.5890                 1.7361                14.3908

                      7                      8                      9
                      A                      A                      A
 Frequencies --    254.2540               284.3156               337.3036
 Red. masses --      3.2801                 2.1664                 2.0821
 Frc consts  --      0.1249                 0.1032                 0.1396
 IR Inten    --      0.4906                 0.7306                 0.9313

                     10                     11                     12
                      A                      A                      A
 Frequencies --    389.1324               422.9830               429.6216
 Red. masses --      2.0264                 2.6391                 2.7743
 Frc consts  --      0.1808                 0.2782                 0.3017
 IR Inten    --      4.6620                 6.7049                22.2137

                     13                     14                     15
                      A                      A                      A
 Frequencies --    442.0824               510.2009               522.6536
 Red. masses --      2.6067                 3.9016                 2.7475
 Frc consts  --      0.3002                 0.5984                 0.4422
 IR Inten    --      1.1871                 2.2213                 5.2879

                     16                     17                     18
                      A                      A                      A
 Frequencies --    529.1172               556.9184               666.3472
 Red. masses --      2.2613                 2.9046                 2.4232
 Frc consts  --      0.3730                 0.5308                 0.6339
 IR Inten    --      3.1579                31.2429                 4.7152

                     19                     20                     21
                      A                      A                      A
 Frequencies --    743.5211               833.4841               841.8716
 Red. masses --      2.4829                 1.8764                 2.4379
 Frc consts  --      0.8087                 0.7680                 1.0180
 IR Inten    --      1.7575                 2.7515                 7.7837

                     22                     23                     24
                      A                      A                      A
 Frequencies --    853.6926               873.4615               881.3798
 Red. masses --      3.2365                 1.8882                 1.8519
 Frc consts  --      1.3897                 0.8488                 0.8476
 IR Inten    --      0.4665                 5.0889                 9.8977

                     25                     26                     27
                      A                      A                      A
 Frequencies --    900.7611               906.5919               914.1109
 Red. masses --      2.5088                 2.0229                 2.5159
 Frc consts  --      1.1993                 0.9796                 1.2386
 IR Inten    --     11.1945                35.4503                90.6458

                     28                     29                     30
                      A                      A                      A
 Frequencies --    940.5345               947.3609              1015.0738
 Red. masses --      2.0304                 1.5606                 1.7677
 Frc consts  --      1.0582                 0.8252                 1.0731
 IR Inten    --      8.0426                 6.2659                33.8154

                     31                     32                     33
                      A                      A                      A
 Frequencies --   1033.4485              1037.2833              1058.6577
 Red. masses --      2.3363                 2.0642                 1.8525
 Frc consts  --      1.4701                 1.3086                 1.2233
 IR Inten    --      9.4812                49.5290                21.7778

                     34                     35                     36
                      A                      A                      A
 Frequencies --   1063.3802              1072.0735              1085.3540
 Red. masses --      1.7746                 1.7637                 2.0767
 Frc consts  --      1.1823                 1.1943                 1.4414
 IR Inten    --      5.5139                13.6642               277.1983

                     37                     38                     39
                      A                      A                      A
 Frequencies --   1104.5769              1143.6504              1162.2710
 Red. masses --      1.8158                 2.7157                 2.4489
 Frc consts  --      1.3053                 2.0928                 1.9491
 IR Inten    --    104.9777               247.3061                85.3158

                     40                     41                     42
                      A                      A                      A
 Frequencies --   1180.1567              1190.3552              1209.3829
 Red. masses --      2.4986                 2.6489                 1.4330
 Frc consts  --      2.0503                 2.2114                 1.2349
 IR Inten    --     15.3529               104.6974                16.6231

                     43                     44                     45
                      A                      A                      A
 Frequencies --   1221.3080              1239.7436              1255.6130
 Red. masses --      1.3461                 1.7378                 2.2655
 Frc consts  --      1.1830                 1.5737                 2.1044
 IR Inten    --     30.4265                40.9004               215.6507

                     46                     47                     48
                      A                      A                      A
 Frequencies --   1281.0025              1297.2007              1318.1136
 Red. masses --      1.2317                 1.1284                 1.1630
 Frc consts  --      1.1908                 1.1187                 1.1905
 IR Inten    --     48.4160                 4.3284                20.6704

                     49                     50                     51
                      A                      A                      A
 Frequencies --   1336.9908              1354.7137              1358.8424
 Red. masses --      1.2229                 1.3415                 1.3937
 Frc consts  --      1.2879                 1.4506                 1.5162
 IR Inten    --     17.5555                10.6269                18.5350

                     52                     53                     54
                      A                      A                      A
 Frequencies --   1366.8482              1383.5854              1386.9006
 Red. masses --      1.5163                 1.5152                 1.5994
 Frc consts  --      1.6691                 1.7090                 1.8126
 IR Inten    --      6.9982                 6.1237                13.9906

                     55                     56                     57
                      A                      A                      A
 Frequencies --   1390.3101              1395.5399              1401.7028
 Red. masses --      1.4911                 1.4922                 1.3651
 Frc consts  --      1.6982                 1.7122                 1.5803
 IR Inten    --      9.9486                27.5266                 3.2479

                     58                     59                     60
                      A                      A                      A
 Frequencies --   1412.1480              1427.2852              1430.5050
 Red. masses --      1.4124                 1.3867                 1.4413
 Frc consts  --      1.6595                 1.6643                 1.7378
 IR Inten    --     10.3059                30.5120                 5.5545

                     61                     62                     63
                      A                      A                      A
 Frequencies --   1455.6707              1469.3567              1470.0941
 Red. masses --      1.2607                 1.1139                 1.0976
 Frc consts  --      1.5740                 1.4170                 1.3977
 IR Inten    --     18.1711                 4.8832                 6.8870

                     64                     65                     66
                      A                      A                      A
 Frequencies --   1472.2041              1483.5266              1487.8765
 Red. masses --      1.0884                 1.1120                 1.1158
 Frc consts  --      1.3898                 1.4420                 1.4553
 IR Inten    --     12.4766                18.4512                21.2676

                     67                     68                     69
                      A                      A                      A
 Frequencies --   1488.6361              1504.2806              1507.9530
 Red. masses --      1.0968                 1.0990                 1.0965
 Frc consts  --      1.4321                 1.4653                 1.4690
 IR Inten    --      0.7283                 6.4639                 7.8115

                     70                     71                     72
                      A                      A                      A
 Frequencies --   3029.8210              3045.7100              3061.4143
 Red. masses --      1.0700                 1.0682                 1.0708
 Frc consts  --      5.7871                 5.8381                 5.9129
 IR Inten    --     75.1100                42.0577                31.2485

                     73                     74                     75
                      A                      A                      A
 Frequencies --   3061.7345              3066.5155              3069.1957
 Red. masses --      1.0765                 1.0660                 1.0617
 Frc consts  --      5.9459                 5.9063                 5.8926
 IR Inten    --     37.5954                34.9941                59.1228

                     76                     77                     78
                      A                      A                      A
 Frequencies --   3073.0758              3073.3636              3074.2201
 Red. masses --      1.0685                 1.0622                 1.0614
 Frc consts  --      5.9450                 5.9115                 5.9100
 IR Inten    --     67.9284                23.1440                34.5708

                     79                     80                     81
                      A                      A                      A
 Frequencies --   3111.1705              3115.7740              3117.2767
 Red. masses --      1.0947                 1.0951                 1.0958
 Frc consts  --      6.2431                 6.2637                 6.2736
 IR Inten    --     46.9456                67.2156                15.3647

                     82                     83                     84
                      A                      A                      A
 Frequencies --   3119.4277              3122.4111              3123.6095
 Red. masses --      1.1015                 1.1029                 1.1049
 Frc consts  --      6.3154                 6.3355                 6.3517
 IR Inten    --     56.2234                60.1389                57.2598

                     85                     86                     87
                      A                      A                      A
 Frequencies --   3137.1617              3139.9083              3141.1789
 Red. masses --      1.0957                 1.0976                 1.0994
 Frc consts  --      6.3537                 6.3760                 6.3914
 IR Inten    --     47.5144                28.9003                45.3004

 - Thermochemistry -
 -------------------
 Temperature   298.150 Kelvin.  Pressure   1.00000 Atm.
 Atom     1 has atomic number  6 and mass  12.00000

 Molecular mass:   186.12559 amu.
 Principal axes and moments of inertia in atomic units:
                           1         2         3
     Eigenvalues --  1134.860123840.840774005.03108
           X            0.99986   0.00080  -0.01698
           Y           -0.00059   0.99992   0.01235
           Z            0.01698  -0.01234   0.99978
 This molecule is an asymmetric top.
 Rotational symmetry number  1.
 Warning -- assumption of classical behavior for rotation
           may cause significant error
 Rotational temperatures (Kelvin)      0.07632     0.02255     0.02163
 Rotational constants (GHZ):           1.59028     0.46988     0.45062
    1 imaginary frequencies ignored.
 Zero-point vibrational energy     737588.4 (Joules/Mol)
                                  176.28787 (Kcal/Mol)
 Warning -- explicit consideration of  16 degrees of freedom as
           vibrations may cause significant error
 Vibrational temperatures:     91.88   108.74   204.65   259.96   337.42
          (Kelvin)            365.81   409.07   485.30   559.87   608.58
                              618.13   636.06   734.07   751.98   761.28
                              801.28   958.73  1069.76  1199.20  1211.27
                             1228.27  1256.72  1268.11  1295.99  1304.38
                             1315.20  1353.22  1363.04  1460.46  1486.90
                             1492.42  1523.17  1529.97  1542.47  1561.58
                             1589.24  1645.46  1672.25  1697.98  1712.66
                             1740.03  1757.19  1783.71  1806.55  1843.08
                             1866.38  1896.47  1923.63  1949.13  1955.07
                             1966.59  1990.67  1995.44  2000.35  2007.87
                             2016.74  2031.77  2053.55  2058.18  2094.39
                             2114.08  2115.14  2118.17  2134.46  2140.72
                             2141.82  2164.32  2169.61  4359.24  4382.10
                             4404.69  4405.15  4412.03  4415.89  4421.47
                             4421.88  4423.12  4476.28  4482.90  4485.07
                             4488.16  4492.45  4494.18  4513.68  4517.63
                             4519.46

 Zero-point correction=                           0.280933 (Hartree/Particle)
 Thermal correction to Energy=                    0.291718
 Thermal correction to Enthalpy=                  0.292663
 Thermal correction to Gibbs Free Energy=         0.244261
 Sum of electronic and zero-point Energies=           -617.225741
 Sum of electronic and thermal Energies=              -617.214955
 Sum of electronic and thermal Enthalpies=            -617.214011
 Sum of electronic and thermal Free Energies=         -617.262412

                     E (Thermal)             CV                S
                      KCal/Mol        Cal/Mol-Kelvin    Cal/Mol-Kelvin
 Total                  183.056             44.460            101.869
 Electronic               0.000              0.000              0.000
 Translational            0.889              2.981             41.570
 Rotational               0.889              2.981             31.235
 Vibrational            181.279             38.498             29.064
 Vibration     1          0.597              1.972              4.334
 Vibration     2          0.599              1.965              4.003
 Vibration     3          0.616              1.911              2.774
 Vibration     4          0.630              1.866              2.321
 Vibration     5          0.654              1.788              1.844
 Vibration     6          0.665              1.756              1.701
 Vibration     7          0.683              1.703              1.508
 Vibration     8          0.718              1.601              1.225
 Vibration     9          0.757              1.493              1.003
 Vibration    10          0.785              1.420              0.882
 Vibration    11          0.791              1.406              0.860
 Vibration    12          0.802              1.378              0.820
 Vibration    13          0.865              1.227              0.633
 Vibration    14          0.878              1.200              0.604
 Vibration    15          0.884              1.186              0.589
 Vibration    16          0.912              1.125              0.530

 Optimization completed.
    -- Stationary point found.
 Normal termination of Gaussian 16 at Fri Mar  8 15:28:56 2019.
