 Gaussian 16, Revision B.01,
 Gaussian 16:  ES64L-G16RevB.01 20-Dec-2017

 ----------------------------------------------------------------------
 #M062X/6-311++G(2d,2p) opt=ModRedundant freq=noraman SCRF=(SMD,solvent
 =water)
 ----------------------------------------------------------------------

 --------------------------------
 4c1_a1_a4_4c1_PHI.inp_extract_16
 --------------------------------
 Symbolic Z-matrix:
 Charge =  0 Multiplicity = 1

 SCF Done:  E(RM062X) =  -617.494526838     A.U. after   13 cycles
 SCF Done:  E(RM062X) =  -617.494663246     A.U. after   11 cycles
 SCF Done:  E(RM062X) =  -617.496654436     A.U. after   11 cycles
 SCF Done:  E(RM062X) =  -617.496947970     A.U. after   10 cycles
 SCF Done:  E(RM062X) =  -617.497029568     A.U. after   10 cycles
 SCF Done:  E(RM062X) =  -617.497043436     A.U. after    8 cycles
 SCF Done:  E(RM062X) =  -617.497045840     A.U. after    8 cycles
 SCF Done:  E(RM062X) =  -617.497046216     A.U. after    7 cycles
 Optimization completed.
    -- Stationary point found.
 Normal termination of Gaussian 16 at Fri Mar  8 19:21:37 2019.

 ----------------------------------------------------------------------
 #N Geom=AllCheck Guess=TCheck SCRF=Check GenChk RM062X/6-311++G(2d,2p)
  Freq
 ----------------------------------------------------------------------

 Structure from the checkpoint file:  "4c1_a1_a4_4c1_PHI.inp_extract_16.chk"
 --------------------------------
 4c1_a1_a4_4c1_PHI.inp_extract_16
 --------------------------------
 Charge =  0 Multiplicity = 1

                         Standard orientation:
 ---------------------------------------------------------------------
 Center     Atomic      Atomic             Coordinates (Angstroms)
 Number     Number       Type             X           Y           Z
 ---------------------------------------------------------------------
      1          6           0        1.750051   -1.240116   -0.756822
      2          6           0       -1.147823   -0.228136    1.183635
      3          6           0        0.697204   -0.190625   -0.442218
      4          6           0       -3.249041    0.400306   -0.749452
      5          6           0        3.524982    0.136736   -0.059494
      6          8           0        2.882212   -1.128234    0.095020
      7          6           0       -2.700999   -1.021005   -0.734004
      8          6           0       -2.144218    1.371533   -0.391221
      9          6           0       -2.094248   -1.302945    0.639383
     10          6           0        2.589534    1.273442    0.312543
     11          8           0       -1.561692    1.089304    0.889682
     12          8           0        0.216022   -0.460420    0.877852
     13          6           0        1.315561    1.203454   -0.528673
     14          1           0        2.061942   -1.131088   -1.801311
     15          1           0        1.342066   -2.238339   -0.608792
     16          1           0       -1.158108   -0.282801    2.270463
     17          1           0       -0.102639   -0.305337   -1.171322
     18          1           0       -4.060611    0.493152   -0.023640
     19          1           0       -3.644540    0.666016   -1.729888
     20          1           0        4.402963    0.113877    0.582685
     21          1           0        3.854374    0.241182   -1.100044
     22          1           0       -1.962537   -1.140133   -1.528206
     23          1           0       -3.493818   -1.742988   -0.928200
     24          1           0       -2.523568    2.387490   -0.302555
     25          1           0       -1.373739    1.369768   -1.165473
     26          1           0       -2.914200   -1.373657    1.357428
     27          1           0       -1.563947   -2.254265    0.662450
     28          1           0        3.099123    2.224702    0.158324
     29          1           0        2.344039    1.199056    1.373434
     30          1           0        0.595741    1.955917   -0.211154
     31          1           0        1.559110    1.396382   -1.576701
 ---------------------------------------------------------------------

 SCF Done:  E(RM062X) =  -617.497046216     A.U. after    1 cycles

 The electronic state is 1-A.
 Alpha  occ. eigenvalues --  -19.63266 -19.62880 -19.62612 -10.63470 -10.58236
 Alpha  occ. eigenvalues --  -10.57538 -10.57471 -10.57273 -10.52581 -10.52477
 Alpha  occ. eigenvalues --  -10.52370 -10.52318 -10.52226  -1.19189  -1.16163
 Alpha  occ. eigenvalues --   -1.12926  -0.90133  -0.89684  -0.86835  -0.84045
 Alpha  occ. eigenvalues --   -0.74311  -0.73422  -0.73190  -0.70732  -0.65719
 Alpha  occ. eigenvalues --   -0.62292  -0.59023  -0.57514  -0.56756  -0.54996
 Alpha  occ. eigenvalues --   -0.53765  -0.52403  -0.52017  -0.50493  -0.50057
 Alpha  occ. eigenvalues --   -0.48851  -0.46153  -0.45603  -0.45252  -0.44484
 Alpha  occ. eigenvalues --   -0.42493  -0.42389  -0.41088  -0.39363  -0.39043
 Alpha  occ. eigenvalues --   -0.37916  -0.36733  -0.36220  -0.34766  -0.33024
 Alpha  occ. eigenvalues --   -0.31380
 Alpha virt. eigenvalues --    0.00265   0.01182   0.01365   0.01626   0.02756
 Alpha virt. eigenvalues --    0.03085   0.03169   0.03649   0.04092   0.05084
 Alpha virt. eigenvalues --    0.05277   0.05449   0.06117   0.06391   0.07850

 Mulliken charges:
               1
     1  C   -0.589217
     2  C   -0.178090
     3  C    0.303150
     4  C   -0.414726
     5  C   -0.224493
     6  O   -0.371502
     7  C   -0.291424
     8  C   -0.206779
     9  C   -0.233744
    10  C   -0.299529
    11  O   -0.336031
    12  O   -0.340199
    13  C   -0.457184
    14  H    0.207114
    15  H    0.205063
    16  H    0.261617
    17  H    0.247297
    18  H    0.176865
    19  H    0.181079
    20  H    0.210604
    21  H    0.152868
    22  H    0.182674
    23  H    0.205610
    24  H    0.234406
    25  H    0.180137
    26  H    0.208825
    27  H    0.186744
    28  H    0.186118
    29  H    0.178626
    30  H    0.188110
    31  H    0.246011
 Sum of Mulliken charges =   0.00000

 Dipole moment (field-independent basis, Debye):
    X=             -2.6461    Y=              0.9518    Z=             -4.4255  Tot=              5.2434
 Quadrupole moment (field-independent basis, Debye-Ang):
   XX=            -75.3838   YY=            -81.4042   ZZ=            -79.0318
   XY=              9.1667   XZ=             -2.0768   YZ=             -1.1325

  Exact polarizability: 180.153   1.120 171.989   1.191  -1.963 170.331
 Approx polarizability: 144.753   0.102 141.590   0.550  -1.803 143.902

                      1                      2                      3
                      A                      A                      A
 Frequencies --     43.0853                54.8972                93.7281
 Red. masses --      3.2933                 4.0813                 3.3188
 Frc consts  --      0.0036                 0.0072                 0.0172
 IR Inten    --      6.8016                 0.8708                 0.5079

                      4                      5                      6
                      A                      A                      A
 Frequencies --    133.9103               179.4705               212.5283
 Red. masses --      3.7958                 4.0327                 3.2789
 Frc consts  --      0.0401                 0.0765                 0.0873
 IR Inten    --      2.4484                 6.2245                 3.0818

                      7                      8                      9
                      A                      A                      A
 Frequencies --    238.7022               297.4070               350.0810
 Red. masses --      2.6052                 2.3519                 1.8835
 Frc consts  --      0.0875                 0.1226                 0.1360
 IR Inten    --      8.0484                 4.6489                 0.9364

                     10                     11                     12
                      A                      A                      A
 Frequencies --    356.0289               415.3001               429.3355
 Red. masses --      2.2758                 2.7024                 1.9849
 Frc consts  --      0.1700                 0.2746                 0.2156
 IR Inten    --      7.4744                 2.2074                15.8385

                     13                     14                     15
                      A                      A                      A
 Frequencies --    442.0931               469.3424               517.5220
 Red. masses --      3.4285                 4.0105                 2.7652
 Frc consts  --      0.3948                 0.5205                 0.4364
 IR Inten    --      4.0775                 6.4385                 5.6774

                     16                     17                     18
                      A                      A                      A
 Frequencies --    528.2956               581.0286               679.0068
 Red. masses --      2.4532                 2.6580                 2.6218
 Frc consts  --      0.4034                 0.5287                 0.7122
 IR Inten    --     10.0728                19.0269                 5.4510

                     19                     20                     21
                      A                      A                      A
 Frequencies --    751.2169               792.8329               835.3950
 Red. masses --      2.8352                 2.4045                 2.0823
 Frc consts  --      0.9427                 0.8905                 0.8562
 IR Inten    --      6.4606                 5.2388                12.5446

                     22                     23                     24
                      A                      A                      A
 Frequencies --    858.4713               864.0351               879.5078
 Red. masses --      2.2574                 3.0144                 1.6749
 Frc consts  --      0.9802                 1.3259                 0.7634
 IR Inten    --      6.1890                 5.6627                12.5819

                     25                     26                     27
                      A                      A                      A
 Frequencies --    894.8301               907.1491               914.7738
 Red. masses --      2.5456                 2.3919                 2.0577
 Frc consts  --      1.2009                 1.1597                 1.0145
 IR Inten    --     42.0480                57.6960                43.7895

                     28                     29                     30
                      A                      A                      A
 Frequencies --    931.5913               947.1180               994.1728
 Red. masses --      1.9899                 1.6314                 1.9979
 Frc consts  --      1.0175                 0.8622                 1.1634
 IR Inten    --      9.9388                 4.4736                24.6730

                     31                     32                     33
                      A                      A                      A
 Frequencies --   1026.0367              1043.8179              1059.8048
 Red. masses --      2.1190                 2.3505                 1.8624
 Frc consts  --      1.3143                 1.5089                 1.2324
 IR Inten    --     11.3272                 6.9978                34.6995

                     34                     35                     36
                      A                      A                      A
 Frequencies --   1068.2694              1078.0066              1099.1045
 Red. masses --      1.9356                 1.4779                 1.8038
 Frc consts  --      1.3015                 1.0119                 1.2838
 IR Inten    --     32.5553                24.7222               101.4362

                     37                     38                     39
                      A                      A                      A
 Frequencies --   1101.4226              1146.4401              1160.5408
 Red. masses --      1.9433                 2.5844                 2.2073
 Frc consts  --      1.3890                 2.0013                 1.7516
 IR Inten    --    201.2550                93.1696                29.2500

                     40                     41                     42
                      A                      A                      A
 Frequencies --   1167.5203              1195.8966              1218.4431
 Red. masses --      2.7174                 2.0724                 1.6498
 Frc consts  --      2.1824                 1.7462                 1.4431
 IR Inten    --    180.3588               107.8394               113.2636

                     43                     44                     45
                      A                      A                      A
 Frequencies --   1224.3665              1241.1772              1262.2214
 Red. masses --      1.3348                 1.7330                 2.3330
 Frc consts  --      1.1789                 1.5729                 2.1899
 IR Inten    --     26.9315                37.3169               184.6522

                     46                     47                     48
                      A                      A                      A
 Frequencies --   1295.9085              1298.5523              1323.3543
 Red. masses --      1.1422                 1.2690                 1.1959
 Frc consts  --      1.1301                 1.2608                 1.2339
 IR Inten    --     40.3525                49.8612                25.2192

                     49                     50                     51
                      A                      A                      A
 Frequencies --   1337.9377              1355.6501              1362.3866
 Red. masses --      1.2341                 1.4606                 1.4264
 Frc consts  --      1.3016                 1.5815                 1.5598
 IR Inten    --     23.1861                14.9587                 9.2670

                     52                     53                     54
                      A                      A                      A
 Frequencies --   1367.9986              1385.3693              1390.6106
 Red. masses --      1.3593                 1.4901                 1.4905
 Frc consts  --      1.4987                 1.6849                 1.6982
 IR Inten    --      3.6992                 0.5373                 7.2158

                     55                     56                     57
                      A                      A                      A
 Frequencies --   1392.3405              1401.9080              1405.4187
 Red. masses --      1.6512                 1.3072                 1.3569
 Frc consts  --      1.8860                 1.5137                 1.5791
 IR Inten    --     20.3169                12.0687                 6.1141

                     58                     59                     60
                      A                      A                      A
 Frequencies --   1411.7648              1429.8928              1435.2829
 Red. masses --      1.4385                 1.3525                 1.3908
 Frc consts  --      1.6892                 1.6292                 1.6880
 IR Inten    --     16.6321                 6.8711                21.8668

                     61                     62                     63
                      A                      A                      A
 Frequencies --   1453.0059              1466.1599              1467.9113
 Red. masses --      1.1972                 1.0978                 1.0994
 Frc consts  --      1.4892                 1.3904                 1.3957
 IR Inten    --     16.1821                 3.0963                 7.3386

                     64                     65                     66
                      A                      A                      A
 Frequencies --   1475.3368              1478.0476              1490.5439
 Red. masses --      1.0986                 1.1244                 1.0882
 Frc consts  --      1.4088                 1.4473                 1.4244
 IR Inten    --      8.6582                12.8368                 4.6809

                     67                     68                     69
                      A                      A                      A
 Frequencies --   1504.8925              1509.3375              1524.6568
 Red. masses --      1.0997                 1.1023                 1.0915
 Frc consts  --      1.4674                 1.4796                 1.4950
 IR Inten    --      6.7691                16.1506                 6.2928

                     70                     71                     72
                      A                      A                      A
 Frequencies --   3029.3233              3044.1505              3065.3450
 Red. masses --      1.0700                 1.0675                 1.0667
 Frc consts  --      5.7852                 5.8285                 5.9055
 IR Inten    --     73.7938                63.4276                24.0946

                     73                     74                     75
                      A                      A                      A
 Frequencies --   3069.5990              3072.2783              3076.6107
 Red. masses --      1.0672                 1.0670                 1.0636
 Frc consts  --      5.9249                 5.9339                 5.9314
 IR Inten    --     34.8151                19.7245                57.2089

                     76                     77                     78
                      A                      A                      A
 Frequencies --   3078.4986              3079.4713              3115.8539
 Red. masses --      1.0611                 1.0611                 1.0982
 Frc consts  --      5.9252                 5.9286                 6.2819
 IR Inten    --     42.4383                26.2700                56.8743

                     79                     80                     81
                      A                      A                      A
 Frequencies --   3120.9804              3122.3947              3123.7342
 Red. masses --      1.0890                 1.0995                 1.1012
 Frc consts  --      6.2499                 6.3159                 6.3308
 IR Inten    --     80.7179                21.7087                38.7966

                     82                     83                     84
                      A                      A                      A
 Frequencies --   3129.3423              3134.7509              3135.6541
 Red. masses --      1.1005                 1.0979                 1.0966
 Frc consts  --      6.3493                 6.3565                 6.3527
 IR Inten    --     43.2255                66.7568                45.3836

                     85                     86                     87
                      A                      A                      A
 Frequencies --   3137.2507              3137.6177              3146.1337
 Red. masses --      1.0990                 1.0981                 1.0858
 Frc consts  --      6.3731                 6.3696                 6.3322
 IR Inten    --      4.6937                45.9491                50.3964

 - Thermochemistry -
 -------------------
 Temperature   298.150 Kelvin.  Pressure   1.00000 Atm.
 Atom     1 has atomic number  6 and mass  12.00000

 Molecular mass:   186.12559 amu.
 Principal axes and moments of inertia in atomic units:
                           1         2         3
     Eigenvalues --  1059.786613681.152674014.28398
           X            0.99984   0.01757   0.00284
           Y           -0.01753   0.99977  -0.01261
           Z           -0.00306   0.01256   0.99992
 This molecule is an asymmetric top.
 Rotational symmetry number  1.
 Warning -- assumption of classical behavior for rotation
           may cause significant error
 Rotational temperatures (Kelvin)      0.08173     0.02353     0.02158
 Rotational constants (GHZ):           1.70293     0.49027     0.44958
 Zero-point vibrational energy     738509.7 (Joules/Mol)
                                  176.50806 (Kcal/Mol)
 Warning -- explicit consideration of  17 degrees of freedom as
           vibrations may cause significant error
 Vibrational temperatures:     61.99    78.98   134.85   192.67   258.22
          (Kelvin)            305.78   343.44   427.90   503.69   512.25
                              597.52   617.72   636.07   675.28   744.60
                              760.10   835.97   976.94  1080.83  1140.71
                             1201.95  1235.15  1243.15  1265.42  1287.46
                             1305.19  1316.16  1340.35  1362.69  1430.39
                             1476.24  1501.82  1524.82  1537.00  1551.01
                             1581.37  1584.70  1649.47  1669.76  1679.80
                             1720.63  1753.07  1761.59  1785.78  1816.06
                             1864.52  1868.33  1904.01  1924.99  1950.48
                             1960.17  1968.24  1993.24  2000.78  2003.27
                             2017.03  2022.08  2031.21  2057.30  2065.05
                             2090.55  2109.48  2112.00  2122.68  2126.58
                             2144.56  2165.20  2171.60  2193.64  4358.52
                             4379.85  4410.35  4416.47  4420.32  4426.56
                             4429.27  4430.67  4483.02  4490.39  4492.43
                             4494.36  4502.43  4510.21  4511.51  4513.80
                             4514.33  4526.58

 Zero-point correction=                           0.281283 (Hartree/Particle)
 Thermal correction to Energy=                    0.293011
 Thermal correction to Enthalpy=                  0.293955
 Thermal correction to Gibbs Free Energy=         0.242980
 Sum of electronic and zero-point Energies=           -617.215763
 Sum of electronic and thermal Energies=              -617.204036
 Sum of electronic and thermal Enthalpies=            -617.203091
 Sum of electronic and thermal Free Energies=         -617.254066

                     E (Thermal)             CV                S
                      KCal/Mol        Cal/Mol-Kelvin    Cal/Mol-Kelvin
 Total                  183.867             46.620            107.285
 Electronic               0.000              0.000              0.000
 Translational            0.889              2.981             41.570
 Rotational               0.889              2.981             31.127
 Vibrational            182.090             40.659             34.588
 Vibration     1          0.595              1.980              5.112
 Vibration     2          0.596              1.976              4.633
 Vibration     3          0.603              1.954              3.581
 Vibration     4          0.613              1.919              2.889
 Vibration     5          0.629              1.868              2.334
 Vibration     6          0.644              1.822              2.022
 Vibration     7          0.657              1.781              1.813
 Vibration     8          0.691              1.679              1.431
 Vibration     9          0.727              1.575              1.166
 Vibration    10          0.732              1.563              1.139
 Vibration    11          0.779              1.437              0.908
 Vibration    12          0.791              1.406              0.861
 Vibration    13          0.802              1.378              0.820
 Vibration    14          0.826              1.318              0.739
 Vibration    15          0.873              1.211              0.616
 Vibration    16          0.883              1.187              0.591
 Vibration    17          0.938              1.072              0.483

 Optimization completed.
    -- Stationary point found.
 Normal termination of Gaussian 16 at Fri Mar  8 20:30:30 2019.
