 Gaussian 16, Revision A.03,
 Gaussian 16:  ES64L-G16RevA.03 25-Dec-2016

 ----------------------------------------------------------------------
 #M062X/6-311++G(2d,2p) opt=ModRedundant freq=noraman SCRF=(Solvent=Wat
 er)
 ----------------------------------------------------------------------

 ----------------------------
 D_a1-4_2SO_PSI.inp_extract_6
 ----------------------------
 Symbolic Z-matrix:
 Charge =  0 Multiplicity = 1

 SCF Done:  E(RM062X) =  -617.492710068     A.U. after   12 cycles
 SCF Done:  E(RM062X) =  -617.494581674     A.U. after   11 cycles
 SCF Done:  E(RM062X) =  -617.494874530     A.U. after   10 cycles
 SCF Done:  E(RM062X) =  -617.495007059     A.U. after   10 cycles
 SCF Done:  E(RM062X) =  -617.495085046     A.U. after   10 cycles
 SCF Done:  E(RM062X) =  -617.495111250     A.U. after    9 cycles
 SCF Done:  E(RM062X) =  -617.495113118     A.U. after    7 cycles
 SCF Done:  E(RM062X) =  -617.495113343     A.U. after    7 cycles
 Optimization completed.
    -- Stationary point found.
 Normal termination of Gaussian 16 at Sun Nov  4 21:59:37 2018.

 ----------------------------------------------------------------------
 #N Geom=AllCheck Guess=TCheck SCRF=Check GenChk RM062X/6-311++G(2d,2p)
  Freq
 ----------------------------------------------------------------------

 Structure from the checkpoint file:  "D_a1-4_2SO_PSI.inp_extract_6.chk"
 ----------------------------
 D_a1-4_2SO_PSI.inp_extract_6
 ----------------------------
 Charge =  0 Multiplicity = 1

                         Standard orientation:
 ---------------------------------------------------------------------
 Center     Atomic      Atomic             Coordinates (Angstroms)
 Number     Number       Type             X           Y           Z
 ---------------------------------------------------------------------
      1          6           0        1.091506   -0.755145    0.519675
      2          6           0        3.381169    0.818306   -0.512821
      3          8           0       -1.524524    0.856909    0.987997
      4          6           0        1.539171    0.652606    0.935471
      5          6           0        2.019584   -1.264240   -0.582680
      6          8           0       -0.230241   -0.817456   -0.011197
      7          6           0       -2.521643   -1.259688    0.379474
      8          6           0       -3.003113   -0.666381   -0.944051
      9          6           0       -1.281141   -0.531345    0.875307
     10          6           0       -3.190495    0.841867   -0.787087
     11          6           0       -1.916210    1.465870   -0.242969
     12          6           0        3.424429   -0.708718   -0.373396
     13          8           0        2.103385    1.347448   -0.162216
     14          1           0        1.140339   -1.406385    1.399395
     15          1           0        4.150426    1.287956    0.107415
     16          1           0        3.545284    1.110998   -1.548761
     17          1           0        0.696629    1.236105    1.291857
     18          1           0        2.273954    0.572243    1.743850
     19          1           0        1.625967   -0.905588   -1.535298
     20          1           0        2.014261   -2.352227   -0.610718
     21          1           0       -2.294168   -2.320654    0.285541
     22          1           0       -3.297722   -1.146549    1.138722
     23          1           0       -2.263361   -0.863359   -1.722575
     24          1           0       -3.933442   -1.142195   -1.252420
     25          1           0       -1.010264   -0.849214    1.885186
     26          1           0       -3.444158    1.309378   -1.739000
     27          1           0       -4.008600    1.041309   -0.090695
     28          1           0       -2.051333    2.521399   -0.017485
     29          1           0       -1.103252    1.367999   -0.967967
     30          1           0        3.788518   -0.994794    0.614791
     31          1           0        4.122409   -1.120415   -1.100037
 ---------------------------------------------------------------------

 SCF Done:  E(RM062X) =  -617.495113343     A.U. after    1 cycles

 The electronic state is 1-A.
 Alpha  occ. eigenvalues --  -19.63177 -19.62777 -19.62646 -10.63465 -10.58919
 Alpha  occ. eigenvalues --  -10.57962 -10.57665 -10.57517 -10.53324 -10.53224
 Alpha  occ. eigenvalues --  -10.52991 -10.52948 -10.52818  -1.19864  -1.16139
 Alpha  occ. eigenvalues --   -1.13366  -0.90907  -0.89646  -0.86768  -0.84326
 Alpha  occ. eigenvalues --   -0.75217  -0.73976  -0.72702  -0.71195  -0.64455
 Alpha  occ. eigenvalues --   -0.62609  -0.60032  -0.59570  -0.57321  -0.56578
 Alpha  occ. eigenvalues --   -0.54510  -0.52849  -0.52349  -0.50158  -0.48945
 Alpha  occ. eigenvalues --   -0.48567  -0.46578  -0.45490  -0.45145  -0.44140
 Alpha  occ. eigenvalues --   -0.43967  -0.42420  -0.41564  -0.40460  -0.39422
 Alpha  occ. eigenvalues --   -0.38372  -0.37472  -0.36303  -0.35603  -0.32848
 Alpha  occ. eigenvalues --   -0.31603
 Alpha virt. eigenvalues --   -0.00111   0.00744   0.00808   0.01163   0.02237
 Alpha virt. eigenvalues --    0.02486   0.02568   0.03314   0.03530   0.04473
 Alpha virt. eigenvalues --    0.04601   0.04779   0.05404   0.05770   0.07133

 Mulliken charges:
               1
     1  C   -0.078831
     2  C   -0.213845
     3  O   -0.273982
     4  C   -0.547566
     5  C   -0.173891
     6  O   -0.245343
     7  C   -0.436345
     8  C   -0.291882
     9  C    0.005661
    10  C   -0.418510
    11  C   -0.097325
    12  C   -0.323372
    13  O   -0.274312
    14  H    0.216857
    15  H    0.170361
    16  H    0.169394
    17  H    0.259359
    18  H    0.169864
    19  H    0.186247
    20  H    0.190314
    21  H    0.185408
    22  H    0.188847
    23  H    0.169217
    24  H    0.182192
    25  H    0.243088
    26  H    0.172509
    27  H    0.163946
    28  H    0.201460
    29  H    0.148621
    30  H    0.182999
    31  H    0.168861
 Sum of Mulliken charges =  -0.00000

 Dipole moment (field-independent basis, Debye):
    X=              0.8157    Y=             -2.2260    Z=              0.3652  Tot=              2.3987
 Quadrupole moment (field-independent basis, Debye-Ang):
   XX=            -68.7621   YY=            -82.4072   ZZ=            -78.9587
   XY=             -2.9992   XZ=              2.3066   YZ=             -2.9821

  Exact polarizability: 172.663  -0.143 157.723  -0.393  -1.963 153.055
 Approx polarizability: 145.659  -1.558 141.251  -0.793  -1.523 143.562

 ******    1 imaginary frequencies (negative Signs) ******

                      1                      2                      3
                      A                      A                      A
 Frequencies --    -21.1178                41.7017                99.6779
 Red. masses --      3.6995                 3.8593                 2.9846
 Frc consts  --      0.0010                 0.0040                 0.0175
 IR Inten    --      1.0287                 1.6450                 0.6123

                      4                      5                      6
                      A                      A                      A
 Frequencies --    111.0028               198.5576               205.4819
 Red. masses --      3.3938                 3.2807                 2.3344
 Frc consts  --      0.0246                 0.0762                 0.0581
 IR Inten    --      3.8830                 3.2105                 3.6126

                      7                      8                      9
                      A                      A                      A
 Frequencies --    249.7011               277.3154               308.4360
 Red. masses --      2.6747                 2.8056                 2.7847
 Frc consts  --      0.0983                 0.1271                 0.1561
 IR Inten    --      8.4714                 1.7630                 7.4742

                     10                     11                     12
                      A                      A                      A
 Frequencies --    362.0910               380.5930               436.6977
 Red. masses --      2.0801                 2.6759                 2.4148
 Frc consts  --      0.1607                 0.2284                 0.2713
 IR Inten    --      9.6433                 5.6628                 0.6361

                     13                     14                     15
                      A                      A                      A
 Frequencies --    456.0518               458.3314               537.1784
 Red. masses --      3.1369                 3.0317                 2.2665
 Frc consts  --      0.3844                 0.3752                 0.3853
 IR Inten    --      3.0408                 9.3024                 3.8405

                     16                     17                     18
                      A                      A                      A
 Frequencies --    583.8777               589.9519               664.7488
 Red. masses --      2.8847                 3.3540                 2.4377
 Frc consts  --      0.5794                 0.6878                 0.6347
 IR Inten    --      2.7648                18.6137                19.2946

                     19                     20                     21
                      A                      A                      A
 Frequencies --    700.9321               822.2116               835.9258
 Red. masses --      2.9129                 2.2403                 1.6040
 Frc consts  --      0.8432                 0.8923                 0.6604
 IR Inten    --      2.8152                10.9693                 1.5915

                     22                     23                     24
                      A                      A                      A
 Frequencies --    844.3458               860.9167               892.6997
 Red. masses --      3.0103                 1.9079                 2.3517
 Frc consts  --      1.2644                 0.8332                 1.1042
 IR Inten    --      7.0869                 3.6966                30.1008

                     25                     26                     27
                      A                      A                      A
 Frequencies --    902.1721               914.9429               917.7878
 Red. masses --      2.4636                 2.3321                 2.5046
 Frc consts  --      1.1814                 1.1502                 1.2430
 IR Inten    --     20.9110                47.8257                12.5726

                     28                     29                     30
                      A                      A                      A
 Frequencies --    936.2810               950.2635               997.6544
 Red. masses --      1.6871                 1.7207                 1.8384
 Frc consts  --      0.8714                 0.9155                 1.0781
 IR Inten    --     11.9610                 6.6394                19.3781

                     31                     32                     33
                      A                      A                      A
 Frequencies --   1024.2631              1047.1691              1063.7268
 Red. masses --      2.1510                 2.3781                 1.5900
 Frc consts  --      1.3296                 1.5365                 1.0600
 IR Inten    --     62.5058                99.9229                88.1370

                     34                     35                     36
                      A                      A                      A
 Frequencies --   1067.0987              1070.6722              1079.0588
 Red. masses --      1.7829                 2.1842                 2.2176
 Frc consts  --      1.1961                 1.4752                 1.5213
 IR Inten    --     18.5602                17.0064               165.5537

                     37                     38                     39
                      A                      A                      A
 Frequencies --   1132.8932              1144.1220              1146.9753
 Red. masses --      2.3172                 3.3203                 2.6267
 Frc consts  --      1.7523                 2.5608                 2.0359
 IR Inten    --    128.7821               100.4387               111.7745

                     40                     41                     42
                      A                      A                      A
 Frequencies --   1177.2057              1186.9244              1212.4857
 Red. masses --      3.8655                 2.9344                 1.4184
 Frc consts  --      3.1561                 2.4356                 1.2286
 IR Inten    --    109.3714                38.6125                15.0139

                     43                     44                     45
                      A                      A                      A
 Frequencies --   1222.7127              1234.1138              1255.8034
 Red. masses --      1.4246                 1.6063                 1.4664
 Frc consts  --      1.2548                 1.4414                 1.3625
 IR Inten    --     12.3277                51.6482                46.0300

                     46                     47                     48
                      A                      A                      A
 Frequencies --   1287.5741              1290.4138              1316.5180
 Red. masses --      1.2147                 1.2063                 1.1462
 Frc consts  --      1.1865                 1.1835                 1.1705
 IR Inten    --     30.5701                 8.4913                 7.6655

                     49                     50                     51
                      A                      A                      A
 Frequencies --   1332.0943              1340.6262              1357.6642
 Red. masses --      1.1999                 1.2553                 1.3422
 Frc consts  --      1.2544                 1.3292                 1.4576
 IR Inten    --     10.2347                27.7540                16.2813

                     52                     53                     54
                      A                      A                      A
 Frequencies --   1368.1258              1373.2150              1384.6269
 Red. masses --      1.5554                 1.2643                 1.4023
 Frc consts  --      1.7154                 1.4047                 1.5840
 IR Inten    --     11.0808                12.3771                15.1306

                     55                     56                     57
                      A                      A                      A
 Frequencies --   1386.3752              1391.7283              1398.4807
 Red. masses --      1.4105                 1.6977                 1.3368
 Frc consts  --      1.5973                 1.9374                 1.5404
 IR Inten    --      9.4559                22.1105                 2.0462

                     58                     59                     60
                      A                      A                      A
 Frequencies --   1403.1176              1420.4468              1431.2066
 Red. masses --      1.3518                 1.3753                 1.3886
 Frc consts  --      1.5680                 1.6350                 1.6759
 IR Inten    --     22.4779                15.8217                10.3084

                     61                     62                     63
                      A                      A                      A
 Frequencies --   1439.6100              1477.1373              1482.9342
 Red. masses --      1.3286                 1.1051                 1.0851
 Frc consts  --      1.6223                 1.4207                 1.4059
 IR Inten    --      3.5480                 4.3637                 7.6166

                     64                     65                     66
                      A                      A                      A
 Frequencies --   1491.1472              1495.6839              1498.5671
 Red. masses --      1.0961                 1.1062                 1.0950
 Frc consts  --      1.4360                 1.4581                 1.4488
 IR Inten    --      2.7939                15.4321                 9.2396

                     67                     68                     69
                      A                      A                      A
 Frequencies --   1506.7188              1509.0550              1519.3393
 Red. masses --      1.0762                 1.0937                 1.0982
 Frc consts  --      1.4395                 1.4674                 1.4936
 IR Inten    --      7.4831                 4.8993                 7.5636

                     70                     71                     72
                      A                      A                      A
 Frequencies --   3027.2839              3040.2512              3042.9142
 Red. masses --      1.0782                 1.0684                 1.0780
 Frc consts  --      5.8217                 5.8181                 5.8810
 IR Inten    --     19.4886                93.5621                94.3197

                     73                     74                     75
                      A                      A                      A
 Frequencies --   3054.9791              3063.6908              3068.5370
 Red. masses --      1.0689                 1.0626                 1.0780
 Frc consts  --      5.8778                 5.8766                 5.9803
 IR Inten    --     47.6984                42.9363                33.9704

                     76                     77                     78
                      A                      A                      A
 Frequencies --   3072.7339              3076.3907              3080.8034
 Red. masses --      1.0638                 1.0683                 1.0693
 Frc consts  --      5.9180                 5.9568                 5.9798
 IR Inten    --     23.0869                17.6210                81.5488

                     79                     80                     81
                      A                      A                      A
 Frequencies --   3083.4194              3113.3654              3114.8142
 Red. masses --      1.0609                 1.0978                 1.0958
 Frc consts  --      5.9428                 6.2693                 6.2639
 IR Inten    --     48.7729                37.3232                18.5560

                     82                     83                     84
                      A                      A                      A
 Frequencies --   3118.9469              3131.0460              3134.0363
 Red. masses --      1.1026                 1.1028                 1.0986
 Frc consts  --      6.3194                 6.3699                 6.3574
 IR Inten    --     67.3916                42.6623                56.2457

                     85                     86                     87
                      A                      A                      A
 Frequencies --   3134.6763              3134.8118              3176.5516
 Red. masses --      1.0989                 1.1040                 1.0927
 Frc consts  --      6.3618                 6.3923                 6.4963
 IR Inten    --     32.2959                56.5490                 2.2177

 - Thermochemistry -
 -------------------
 Temperature   298.150 Kelvin.  Pressure   1.00000 Atm.
 Atom     1 has atomic number  6 and mass  12.00000

 Molecular mass:   186.12559 amu.
 Principal axes and moments of inertia in atomic units:
                           1         2         3
     Eigenvalues --  1036.313213897.094044252.09598
           X            0.99997  -0.00446   0.00607
           Y            0.00457   0.99981  -0.01885
           Z           -0.00599   0.01887   0.99980
 This molecule is an asymmetric top.
 Rotational symmetry number  1.
 Warning -- assumption of classical behavior for rotation
           may cause significant error
 Rotational temperatures (Kelvin)      0.08358     0.02223     0.02037
 Rotational constants (GHZ):           1.74150     0.46310     0.42444
    1 imaginary frequencies ignored.
 Zero-point vibrational energy     736746.6 (Joules/Mol)
                                  176.08666 (Kcal/Mol)
 Warning -- explicit consideration of  16 degrees of freedom as
           vibrations may cause significant error
 Vibrational temperatures:     60.00   143.41   159.71   285.68   295.64
          (Kelvin)            359.26   399.00   443.77   520.97   547.59
                              628.31   656.16   659.44   772.88   840.07
                              848.81   956.43  1008.48  1182.98  1202.71
                             1214.83  1238.67  1284.40  1298.02  1316.40
                             1320.49  1347.10  1367.22  1435.40  1473.69
                             1506.64  1530.47  1535.32  1540.46  1552.52
                             1629.98  1646.14  1650.24  1693.74  1707.72
                             1744.50  1759.21  1775.61  1806.82  1852.53
                             1856.62  1894.18  1916.59  1928.86  1953.38
                             1968.43  1975.75  1992.17  1994.68  2002.39
                             2012.10  2018.77  2043.71  2059.19  2071.28
                             2125.27  2133.61  2145.43  2151.96  2156.10
                             2167.83  2171.19  2185.99  4355.59  4374.24
                             4378.07  4395.43  4407.97  4414.94  4420.98
                             4426.24  4432.59  4436.35  4479.44  4481.52
                             4487.47  4504.88  4509.18  4510.10  4510.29
                             4570.35

 Zero-point correction=                           0.280612 (Hartree/Particle)
 Thermal correction to Energy=                    0.291568
 Thermal correction to Enthalpy=                  0.292513
 Thermal correction to Gibbs Free Energy=         0.243520
 Sum of electronic and zero-point Energies=           -617.214501
 Sum of electronic and thermal Energies=              -617.203545
 Sum of electronic and thermal Enthalpies=            -617.202601
 Sum of electronic and thermal Free Energies=         -617.251593

                     E (Thermal)             CV                S
                      KCal/Mol        Cal/Mol-Kelvin    Cal/Mol-Kelvin
 Total                  182.962             44.695            103.113
 Electronic               0.000              0.000              0.000
 Translational            0.889              2.981             41.570
 Rotational               0.889              2.981             31.219
 Vibrational            181.184             38.733             30.324
 Vibration     1          0.594              1.981              5.177
 Vibration     2          0.604              1.949              3.461
 Vibration     3          0.607              1.940              3.251
 Vibration     4          0.637              1.842              2.146
 Vibration     5          0.640              1.832              2.083
 Vibration     6          0.662              1.763              1.733
 Vibration     7          0.678              1.715              1.550
 Vibration     8          0.698              1.658              1.371
 Vibration     9          0.736              1.550              1.113
 Vibration    10          0.750              1.512              1.037
 Vibration    11          0.797              1.390              0.837
 Vibration    12          0.814              1.348              0.778
 Vibration    13          0.816              1.342              0.771
 Vibration    14          0.892              1.168              0.571
 Vibration    15          0.941              1.066              0.478
 Vibration    16          0.947              1.053              0.467

                           ! Non-Optimized Parameters !
 Normal termination of Gaussian 16 at Sun Nov  4 22:52:27 2018.
