 Gaussian 16, Revision A.03,
 Gaussian 16:  ES64L-G16RevA.03 25-Dec-2016

 ----------------------------------------------------------------------
 #M062X/6-311++G(2d,2p) opt=ModRedundant freq=noraman SCRF=(Solvent=Wat
 er)
 ----------------------------------------------------------------------

 -----------------------------
 D_a1-4_2SO_PSI.inp_extract_10
 -----------------------------
 Symbolic Z-matrix:
 Charge =  0 Multiplicity = 1

 SCF Done:  E(RM062X) =  -617.486547633     A.U. after   12 cycles
 SCF Done:  E(RM062X) =  -617.488232662     A.U. after   12 cycles
 SCF Done:  E(RM062X) =  -617.488536128     A.U. after   11 cycles
 SCF Done:  E(RM062X) =  -617.488727706     A.U. after   10 cycles
 SCF Done:  E(RM062X) =  -617.488750037     A.U. after    9 cycles
 SCF Done:  E(RM062X) =  -617.488754862     A.U. after    8 cycles
 SCF Done:  E(RM062X) =  -617.488755913     A.U. after    8 cycles
 SCF Done:  E(RM062X) =  -617.488756215     A.U. after    8 cycles
 Optimization completed.
    -- Stationary point found.
 Normal termination of Gaussian 16 at Sun Nov  4 22:00:40 2018.

 ----------------------------------------------------------------------
 #N Geom=AllCheck Guess=TCheck SCRF=Check GenChk RM062X/6-311++G(2d,2p)
  Freq
 ----------------------------------------------------------------------

 Structure from the checkpoint file:  "D_a1-4_2SO_PSI.inp_extract_10.chk"
 -----------------------------
 D_a1-4_2SO_PSI.inp_extract_10
 -----------------------------
 Charge =  0 Multiplicity = 1

                         Standard orientation:
 ---------------------------------------------------------------------
 Center     Atomic      Atomic             Coordinates (Angstroms)
 Number     Number       Type             X           Y           Z
 ---------------------------------------------------------------------
      1          6           0       -1.060462   -1.131415    0.045670
      2          6           0       -3.200969    0.918959   -0.050252
      3          8           0        1.070281    0.739566   -0.934345
      4          6           0       -1.633175   -0.405143   -1.187874
      5          6           0       -1.648289   -0.481381    1.296118
      6          8           0        0.367195   -1.184550    0.190755
      7          6           0        2.633934   -1.050667   -0.434990
      8          6           0        3.124600   -0.290563    0.795219
      9          6           0        1.208839   -0.655359   -0.797224
     10          6           0        2.930533    1.207720    0.570981
     11          6           0        1.480293    1.483281    0.212532
     12          6           0       -3.117161   -0.154973    1.044155
     13          8           0       -2.043125    0.912984   -0.880479
     14          1           0       -1.388691   -2.172308   -0.009070
     15          1           0       -4.093617    0.779589   -0.667630
     16          1           0       -3.236873    1.913750    0.390479
     17          1           0       -0.921292   -0.334208   -2.002707
     18          1           0       -2.493212   -0.977916   -1.550097
     19          1           0       -1.098898    0.438033    1.497840
     20          1           0       -1.521688   -1.141689    2.152602
     21          1           0        2.671565   -2.128799   -0.285873
     22          1           0        3.266370   -0.808401   -1.291156
     23          1           0        2.554879   -0.604102    1.672272
     24          1           0        4.171595   -0.523243    0.986874
     25          1           0        0.950632   -1.056542   -1.778592
     26          1           0        3.195849    1.778904    1.461143
     27          1           0        3.572569    1.546790   -0.245707
     28          1           0        1.319949    2.527880   -0.045061
     29          1           0        0.834447    1.234120    1.057957
     30          1           0       -3.642061   -1.060793    0.734340
     31          1           0       -3.605185    0.202184    1.948918
 ---------------------------------------------------------------------

 SCF Done:  E(RM062X) =  -617.488756215     A.U. after    1 cycles

 The electronic state is 1-A.
 Alpha  occ. eigenvalues --  -19.62781 -19.62739 -19.62600 -10.63418 -10.58967
 Alpha  occ. eigenvalues --  -10.58154 -10.57941 -10.57653 -10.53280 -10.53059
 Alpha  occ. eigenvalues --  -10.52981 -10.52912 -10.52792  -1.19603  -1.16189
 Alpha  occ. eigenvalues --   -1.12987  -0.90906  -0.89695  -0.86680  -0.84529
 Alpha  occ. eigenvalues --   -0.75383  -0.74222  -0.72862  -0.70688  -0.64940
 Alpha  occ. eigenvalues --   -0.61524  -0.60653  -0.58848  -0.58296  -0.56050
 Alpha  occ. eigenvalues --   -0.53764  -0.53128  -0.52660  -0.50043  -0.49368
 Alpha  occ. eigenvalues --   -0.47878  -0.46933  -0.45444  -0.45008  -0.44032
 Alpha  occ. eigenvalues --   -0.43786  -0.42735  -0.41561  -0.40724  -0.39810
 Alpha  occ. eigenvalues --   -0.38375  -0.36797  -0.36282  -0.33817  -0.33219
 Alpha  occ. eigenvalues --   -0.32002
 Alpha virt. eigenvalues --   -0.00160   0.00773   0.00814   0.01101   0.02308
 Alpha virt. eigenvalues --    0.02493   0.02628   0.03267   0.03460   0.04542
 Alpha virt. eigenvalues --    0.04739   0.04905   0.05547   0.05784   0.06963

 Mulliken charges:
               1
     1  C   -0.066963
     2  C   -0.287300
     3  O   -0.242486
     4  C   -0.350014
     5  C   -0.164369
     6  O   -0.307499
     7  C   -0.493709
     8  C   -0.305518
     9  C   -0.059306
    10  C   -0.358753
    11  C   -0.119076
    12  C   -0.267566
    13  O   -0.290470
    14  H    0.252302
    15  H    0.171439
    16  H    0.177890
    17  H    0.237030
    18  H    0.178897
    19  H    0.164452
    20  H    0.183039
    21  H    0.185484
    22  H    0.199262
    23  H    0.173049
    24  H    0.186447
    25  H    0.207910
    26  H    0.173648
    27  H    0.162055
    28  H    0.204927
    29  H    0.114100
    30  H    0.182641
    31  H    0.158456
 Sum of Mulliken charges =  -0.00000

 Dipole moment (field-independent basis, Debye):
    X=             -0.7369    Y=             -1.4302    Z=              1.3273  Tot=              2.0857
 Quadrupole moment (field-independent basis, Debye-Ang):
   XX=            -69.3091   YY=            -80.4861   ZZ=            -80.5471
   XY=              3.1280   XZ=             -2.0567   YZ=              6.4865

  Exact polarizability: 172.441  -1.212 157.432  -0.909   2.734 153.623
 Approx polarizability: 145.777   0.750 143.769  -1.408   1.151 142.050

 ******    1 imaginary frequencies (negative Signs) ******

                      1                      2                      3
                      A                      A                      A
 Frequencies --    -36.2229                63.4195               100.8529
 Red. masses --      3.6527                 4.2451                 3.2240
 Frc consts  --      0.0028                 0.0101                 0.0193
 IR Inten    --      1.8392                 2.6746                 1.2787

                      4                      5                      6
                      A                      A                      A
 Frequencies --    133.2805               165.5918               206.1837
 Red. masses --      3.2858                 3.2698                 2.4344
 Frc consts  --      0.0344                 0.0528                 0.0610
 IR Inten    --      5.3513                 4.6264                 4.9962

                      7                      8                      9
                      A                      A                      A
 Frequencies --    229.9879               303.0799               308.8996
 Red. masses --      2.2911                 2.3834                 3.6782
 Frc consts  --      0.0714                 0.1290                 0.2068
 IR Inten    --      4.5597                 8.1640                 7.8998

                     10                     11                     12
                      A                      A                      A
 Frequencies --    347.6975               395.1865               425.8729
 Red. masses --      2.0359                 2.5924                 2.5538
 Frc consts  --      0.1450                 0.2385                 0.2729
 IR Inten    --      0.9378                 9.4920                 2.9051

                     13                     14                     15
                      A                      A                      A
 Frequencies --    452.2808               455.1620               530.4343
 Red. masses --      2.8105                 3.2817                 2.4035
 Frc consts  --      0.3387                 0.4006                 0.3984
 IR Inten    --      8.2068                 3.4210                 4.7855

                     16                     17                     18
                      A                      A                      A
 Frequencies --    558.7484               622.0084               658.5034
 Red. masses --      3.3974                 2.5848                 2.6140
 Frc consts  --      0.6249                 0.5892                 0.6678
 IR Inten    --      3.4970                12.0020                 9.4682

                     19                     20                     21
                      A                      A                      A
 Frequencies --    692.2044               801.7501               832.8446
 Red. masses --      2.9134                 2.4459                 1.5940
 Frc consts  --      0.8225                 0.9263                 0.6514
 IR Inten    --      3.2622                11.2872                 1.4338

                     22                     23                     24
                      A                      A                      A
 Frequencies --    841.1158               854.1000               893.7719
 Red. masses --      3.0816                 1.7848                 2.3288
 Frc consts  --      1.2845                 0.7671                 1.0961
 IR Inten    --      7.8432                 5.7462                27.1404

                     25                     26                     27
                      A                      A                      A
 Frequencies --    907.9833               919.0648               923.9826
 Red. masses --      2.6100                 2.4232                 2.2926
 Frc consts  --      1.2678                 1.2060                 1.1532
 IR Inten    --      4.5305                 8.8573                21.3958

                     28                     29                     30
                      A                      A                      A
 Frequencies --    928.3380               947.8365               985.9614
 Red. masses --      1.8022                 1.5922                 1.9987
 Frc consts  --      0.9151                 0.8428                 1.1448
 IR Inten    --     36.5804                10.5436                25.9541

                     31                     32                     33
                      A                      A                      A
 Frequencies --   1021.3133              1043.9022              1063.0779
 Red. masses --      2.2116                 2.3545                 1.6370
 Frc consts  --      1.3592                 1.5117                 1.0900
 IR Inten    --     89.4936                60.9503                44.0305

                     34                     35                     36
                      A                      A                      A
 Frequencies --   1066.8752              1073.6280              1085.4509
 Red. masses --      1.7324                 2.0344                 2.6251
 Frc consts  --      1.1618                 1.3816                 1.8223
 IR Inten    --     27.5289                23.9683               214.8373

                     37                     38                     39
                      A                      A                      A
 Frequencies --   1136.3681              1147.5340              1151.3010
 Red. masses --      2.2241                 3.6065                 2.8433
 Frc consts  --      1.6922                 2.7981                 2.2205
 IR Inten    --     41.2718               161.8675                59.1815

                     40                     41                     42
                      A                      A                      A
 Frequencies --   1170.3063              1189.6402              1210.3567
 Red. masses --      2.4066                 3.8814                 1.3997
 Frc consts  --      1.9420                 3.2365                 1.2081
 IR Inten    --     21.5040               198.4974                18.9310

                     43                     44                     45
                      A                      A                      A
 Frequencies --   1214.9065              1235.0297              1253.0910
 Red. masses --      1.4514                 1.6849                 1.4915
 Frc consts  --      1.2622                 1.5141                 1.3799
 IR Inten    --      6.5399                55.9415                31.5918

                     46                     47                     48
                      A                      A                      A
 Frequencies --   1288.6724              1292.4531              1318.6521
 Red. masses --      1.2195                 1.1810                 1.1613
 Frc consts  --      1.1932                 1.1623                 1.1897
 IR Inten    --     18.8642                27.8545                 9.0338

                     49                     50                     51
                      A                      A                      A
 Frequencies --   1336.7541              1342.1933              1361.3932
 Red. masses --      1.2182                 1.3050                 1.3505
 Frc consts  --      1.2825                 1.3851                 1.4748
 IR Inten    --      8.7206                 2.4602                17.6944

                     52                     53                     54
                      A                      A                      A
 Frequencies --   1368.9207              1377.6973              1385.6590
 Red. masses --      1.4519                 1.3942                 1.4293
 Frc consts  --      1.6030                 1.5592                 1.6169
 IR Inten    --     17.2915                 9.5179                 0.1679

                     55                     56                     57
                      A                      A                      A
 Frequencies --   1387.6133              1395.6173              1400.0002
 Red. masses --      1.3584                 1.5935                 1.2506
 Frc consts  --      1.5410                 1.8287                 1.4442
 IR Inten    --      6.5717                14.5790                 5.9832

                     58                     59                     60
                      A                      A                      A
 Frequencies --   1413.2629              1420.4034              1432.3587
 Red. masses --      1.3036                 1.3658                 1.3275
 Frc consts  --      1.5340                 1.6236                 1.6046
 IR Inten    --      4.4065                 2.1909                22.7993

                     61                     62                     63
                      A                      A                      A
 Frequencies --   1441.7246              1476.5694              1483.0146
 Red. masses --      1.3121                 1.1032                 1.0856
 Frc consts  --      1.6069                 1.4172                 1.4067
 IR Inten    --     12.4602                 4.8878                 8.5114

                     64                     65                     66
                      A                      A                      A
 Frequencies --   1490.0347              1494.7986              1499.2033
 Red. masses --      1.0999                 1.1108                 1.0909
 Frc consts  --      1.4388                 1.4624                 1.4446
 IR Inten    --      4.2594                11.4038                12.4361

                     67                     68                     69
                      A                      A                      A
 Frequencies --   1504.8060              1506.7996              1517.8834
 Red. masses --      1.0793                 1.0932                 1.0981
 Frc consts  --      1.4399                 1.4624                 1.4906
 IR Inten    --      9.2909                 8.0316                 7.9938

                     70                     71                     72
                      A                      A                      A
 Frequencies --   3036.9874              3039.8922              3059.6795
 Red. masses --      1.0730                 1.0706                 1.0671
 Frc consts  --      5.8309                 5.8289                 5.8856
 IR Inten    --     72.3417                44.9897                49.6743

                     73                     74                     75
                      A                      A                      A
 Frequencies --   3061.3711              3068.2202              3070.8047
 Red. masses --      1.0833                 1.0634                 1.0660
 Frc consts  --      5.9817                 5.8981                 5.9225
 IR Inten    --     70.0535                50.0347                31.7218

                     76                     77                     78
                      A                      A                      A
 Frequencies --   3072.9633              3074.1086              3084.3602
 Red. masses --      1.0680                 1.0675                 1.0779
 Frc consts  --      5.9423                 5.9438                 6.0419
 IR Inten    --     43.7867                18.7719               102.3323

                     79                     80                     81
                      A                      A                      A
 Frequencies --   3093.4802              3113.2411              3116.6005
 Red. masses --      1.0593                 1.0976                 1.0950
 Frc consts  --      5.9726                 6.2677                 6.2668
 IR Inten    --     30.8594                40.2912                18.5026

                     82                     83                     84
                      A                      A                      A
 Frequencies --   3119.0068              3131.5925              3134.6331
 Red. masses --      1.1022                 1.1021                 1.0986
 Frc consts  --      6.3176                 6.3679                 6.3604
 IR Inten    --     68.2098                40.0598                50.7416

                     85                     86                     87
                      A                      A                      A
 Frequencies --   3135.3454              3140.6910              3181.6210
 Red. masses --      1.1006                 1.1051                 1.0899
 Frc consts  --      6.3748                 6.4227                 6.5002
 IR Inten    --     81.7424                16.0362                22.0712

 - Thermochemistry -
 -------------------
 Temperature   298.150 Kelvin.  Pressure   1.00000 Atm.
 Atom     1 has atomic number  6 and mass  12.00000

 Molecular mass:   186.12559 amu.
 Principal axes and moments of inertia in atomic units:
                           1         2         3
     Eigenvalues --  1075.749443628.550743784.65834
           X            0.99999   0.00471  -0.00085
           Y           -0.00456   0.99162   0.12907
           Z            0.00145  -0.12907   0.99163
 This molecule is an asymmetric top.
 Rotational symmetry number  1.
 Warning -- assumption of classical behavior for rotation
           may cause significant error
 Rotational temperatures (Kelvin)      0.08051     0.02387     0.02289
 Rotational constants (GHZ):           1.67766     0.49737     0.47686
    1 imaginary frequencies ignored.
 Zero-point vibrational energy     737019.3 (Joules/Mol)
                                  176.15185 (Kcal/Mol)
 Warning -- explicit consideration of  15 degrees of freedom as
           vibrations may cause significant error
 Vibrational temperatures:     91.25   145.10   191.76   238.25   296.65
          (Kelvin)            330.90   436.06   444.44   500.26   568.59
                              612.74   650.73   654.88   763.18   803.91
                              894.93   947.44   995.93  1153.54  1198.28
                             1210.18  1228.86  1285.94  1306.39  1322.33
                             1329.40  1335.67  1363.73  1418.58  1469.44
                             1501.94  1529.53  1535.00  1544.71  1561.72
                             1634.98  1651.05  1656.47  1683.81  1711.63
                             1741.43  1747.98  1776.93  1802.92  1854.11
                             1859.55  1897.25  1923.29  1931.12  1958.74
                             1969.57  1982.20  1993.65  1996.47  2007.98
                             2014.29  2033.37  2043.64  2060.84  2074.32
                             2124.45  2133.73  2143.83  2150.68  2157.02
                             2165.08  2167.95  2183.90  4369.55  4373.73
                             4402.20  4404.63  4414.48  4418.20  4421.31
                             4422.96  4437.71  4450.83  4479.26  4484.09
                             4487.56  4505.66  4510.04  4511.06  4518.75
                             4577.64

 Zero-point correction=                           0.280716 (Hartree/Particle)
 Thermal correction to Energy=                    0.291664
 Thermal correction to Enthalpy=                  0.292608
 Thermal correction to Gibbs Free Energy=         0.244051
 Sum of electronic and zero-point Energies=           -617.208040
 Sum of electronic and thermal Energies=              -617.197092
 Sum of electronic and thermal Enthalpies=            -617.196148
 Sum of electronic and thermal Free Energies=         -617.244705

                     E (Thermal)             CV                S
                      KCal/Mol        Cal/Mol-Kelvin    Cal/Mol-Kelvin
 Total                  183.022             44.800            102.197
 Electronic               0.000              0.000              0.000
 Translational            0.889              2.981             41.570
 Rotational               0.889              2.981             31.069
 Vibrational            181.245             38.839             29.558
 Vibration     1          0.597              1.972              4.348
 Vibration     2          0.604              1.948              3.438
 Vibration     3          0.613              1.920              2.898
 Vibration     4          0.624              1.885              2.485
 Vibration     5          0.641              1.831              2.077
 Vibration     6          0.652              1.795              1.879
 Vibration     7          0.695              1.668              1.400
 Vibration     8          0.698              1.657              1.368
 Vibration     9          0.725              1.580              1.177
 Vibration    10          0.762              1.480              0.981
 Vibration    11          0.788              1.414              0.872
 Vibration    12          0.811              1.356              0.789
 Vibration    13          0.813              1.349              0.780
 Vibration    14          0.885              1.183              0.586
 Vibration    15          0.914              1.121              0.526

                           ! Non-Optimized Parameters !
 Normal termination of Gaussian 16 at Sun Nov  4 22:56:17 2018.
