 Gaussian 16, Revision A.03,
 Gaussian 16:  ES64L-G16RevA.03 25-Dec-2016

 ----------------------------------------------------------------------
 #M062X/6-311++G(2d,2p) opt=ModRedundant freq=noraman SCRF=(Solvent=Wat
 er)
 ----------------------------------------------------------------------

 ----------------------------
 D_a1-4_2SO_PSI.inp_extract_0
 ----------------------------
 Symbolic Z-matrix:
 Charge =  0 Multiplicity = 1

 SCF Done:  E(RM062X) =  -617.494932629     A.U. after   12 cycles
 SCF Done:  E(RM062X) =  -617.496615228     A.U. after   10 cycles
 SCF Done:  E(RM062X) =  -617.496761046     A.U. after   10 cycles
 SCF Done:  E(RM062X) =  -617.496797935     A.U. after   10 cycles
 SCF Done:  E(RM062X) =  -617.496806546     A.U. after    8 cycles
 SCF Done:  E(RM062X) =  -617.496807189     A.U. after    8 cycles
 SCF Done:  E(RM062X) =  -617.496807521     A.U. after    7 cycles
 SCF Done:  E(RM062X) =  -617.496807574     A.U. after    7 cycles
 Optimization completed.
    -- Stationary point found.
 Normal termination of Gaussian 16 at Sun Nov  4 21:57:23 2018.

 ----------------------------------------------------------------------
 #N Geom=AllCheck Guess=TCheck SCRF=Check GenChk RM062X/6-311++G(2d,2p)
  Freq
 ----------------------------------------------------------------------

 Structure from the checkpoint file:  "D_a1-4_2SO_PSI.inp_extract_0.chk"
 ----------------------------
 D_a1-4_2SO_PSI.inp_extract_0
 ----------------------------
 Charge =  0 Multiplicity = 1

                         Standard orientation:
 ---------------------------------------------------------------------
 Center     Atomic      Atomic             Coordinates (Angstroms)
 Number     Number       Type             X           Y           Z
 ---------------------------------------------------------------------
      1          6           0        0.947802    0.062932   -0.424914
      2          6           0        3.760608   -0.375115    0.374932
      3          8           0       -1.753447    0.554261   -1.234971
      4          6           0        1.666306   -1.267504   -0.199266
      5          6           0        1.905072    1.218531   -0.110667
      6          8           0       -0.193140    0.095083    0.430645
      7          6           0       -2.272064    0.998814    1.093589
      8          6           0       -2.987649   -0.347301    1.200484
      9          6           0       -1.213582    0.962362    0.003713
     10          6           0       -3.510625   -0.757037   -0.175506
     11          6           0       -2.377590   -0.729625   -1.187602
     12          6           0        3.324945    0.810418   -0.496060
     13          8           0        2.646694   -1.151368    0.814226
     14          1           0        0.612268    0.107878   -1.463424
     15          1           0        4.459901   -1.019363   -0.166285
     16          1           0        4.246404   -0.022988    1.283449
     17          1           0        0.948575   -2.017643    0.126595
     18          1           0        2.129627   -1.611110   -1.129487
     19          1           0        1.857394    1.411595    0.962527
     20          1           0        1.603517    2.128265   -0.627138
     21          1           0       -1.799318    1.279116    2.034062
     22          1           0       -2.988689    1.779264    0.831880
     23          1           0       -2.290515   -1.104109    1.565046
     24          1           0       -3.802554   -0.282273    1.920641
     25          1           0       -0.807335    1.958113   -0.189234
     26          1           0       -3.947707   -1.755690   -0.150022
     27          1           0       -4.289786   -0.061536   -0.496810
     28          1           0       -2.736371   -0.917813   -2.196979
     29          1           0       -1.628905   -1.487896   -0.939546
     30          1           0        3.349666    0.539082   -1.553025
     31          1           0        4.023630    1.634449   -0.363654
 ---------------------------------------------------------------------

 SCF Done:  E(RM062X) =  -617.496807574     A.U. after    1 cycles

 The electronic state is 1-A.
 Alpha  occ. eigenvalues --  -19.62986 -19.62958 -19.62772 -10.63407 -10.58588
 Alpha  occ. eigenvalues --  -10.58027 -10.58018 -10.57769 -10.53385 -10.53194
 Alpha  occ. eigenvalues --  -10.53044 -10.52972 -10.52862  -1.20046  -1.16363
 Alpha  occ. eigenvalues --   -1.13194  -0.90836  -0.89555  -0.87204  -0.84247
 Alpha  occ. eigenvalues --   -0.74910  -0.74263  -0.72822  -0.71022  -0.64797
 Alpha  occ. eigenvalues --   -0.62591  -0.59889  -0.59364  -0.58036  -0.55761
 Alpha  occ. eigenvalues --   -0.54442  -0.53526  -0.52633  -0.50050  -0.49385
 Alpha  occ. eigenvalues --   -0.47214  -0.46424  -0.45953  -0.45327  -0.44980
 Alpha  occ. eigenvalues --   -0.43293  -0.42790  -0.42138  -0.41004  -0.39462
 Alpha  occ. eigenvalues --   -0.38416  -0.37250  -0.36127  -0.34594  -0.33300
 Alpha  occ. eigenvalues --   -0.32103
 Alpha virt. eigenvalues --   -0.00107   0.00770   0.00928   0.01040   0.02221
 Alpha virt. eigenvalues --    0.02425   0.02613   0.03351   0.03734   0.04436
 Alpha virt. eigenvalues --    0.04472   0.04606   0.05337   0.06066   0.07091

 Mulliken charges:
               1
     1  C   -0.173070
     2  C   -0.256663
     3  O   -0.291946
     4  C   -0.369228
     5  C   -0.177065
     6  O   -0.240248
     7  C   -0.368171
     8  C   -0.304169
     9  C   -0.028581
    10  C   -0.371001
    11  C   -0.127571
    12  C   -0.334124
    13  O   -0.323630
    14  H    0.263791
    15  H    0.172259
    16  H    0.173741
    17  H    0.214348
    18  H    0.179704
    19  H    0.212569
    20  H    0.154337
    21  H    0.176652
    22  H    0.187137
    23  H    0.176533
    24  H    0.180747
    25  H    0.258527
    26  H    0.170057
    27  H    0.165570
    28  H    0.203587
    29  H    0.117284
    30  H    0.185866
    31  H    0.172757
 Sum of Mulliken charges =  -0.00000

 Dipole moment (field-independent basis, Debye):
    X=              0.0380    Y=              0.7860    Z=             -1.4675  Tot=              1.6651
 Quadrupole moment (field-independent basis, Debye-Ang):
   XX=            -71.0097   YY=            -78.8405   ZZ=            -83.5952
   XY=              6.2091   XZ=             -6.4131   YZ=              5.4209

  Exact polarizability: 175.136   2.790 155.969  -0.156   2.997 151.625
 Approx polarizability: 146.522   1.156 141.824   0.940   0.501 141.763

 ******    1 imaginary frequencies (negative Signs) ******

                      1                      2                      3
                      A                      A                      A
 Frequencies --     -5.7136                44.3308                63.3371
 Red. masses --      3.5214                 3.2079                 3.7611
 Frc consts  --      0.0001                 0.0037                 0.0089
 IR Inten    --      1.6353                 2.3042                 1.5595

                      4                      5                      6
                      A                      A                      A
 Frequencies --    134.6568               157.8489               208.4287
 Red. masses --      3.0770                 3.7101                 2.0877
 Frc consts  --      0.0329                 0.0545                 0.0534
 IR Inten    --      3.6674                 1.7352                 3.9649

                      7                      8                      9
                      A                      A                      A
 Frequencies --    246.0507               272.7211               303.0280
 Red. masses --      3.3170                 2.3282                 2.3633
 Frc consts  --      0.1183                 0.1020                 0.1279
 IR Inten    --      7.0222                 6.3768                 2.6730

                     10                     11                     12
                      A                      A                      A
 Frequencies --    364.9493               412.9680               420.6880
 Red. masses --      1.9156                 2.8319                 2.5349
 Frc consts  --      0.1503                 0.2845                 0.2643
 IR Inten    --      6.0937                10.7410                 9.1079

                     13                     14                     15
                      A                      A                      A
 Frequencies --    441.3341               467.7054               537.1598
 Red. masses --      3.0178                 3.9121                 2.5063
 Frc consts  --      0.3463                 0.5042                 0.4261
 IR Inten    --      6.2605                 3.3934                 3.6115

                     16                     17                     18
                      A                      A                      A
 Frequencies --    555.4311               596.2934               666.5783
 Red. masses --      3.6014                 2.7922                 2.3114
 Frc consts  --      0.6546                 0.5849                 0.6051
 IR Inten    --      9.7421                 6.0737                11.9949

                     19                     20                     21
                      A                      A                      A
 Frequencies --    716.1942               821.2175               832.7108
 Red. masses --      2.8740                 1.9912                 1.5844
 Frc consts  --      0.8686                 0.7912                 0.6473
 IR Inten    --      1.0789                 7.7434                 0.0344

                     22                     23                     24
                      A                      A                      A
 Frequencies --    839.9348               866.5023               893.4873
 Red. masses --      3.3137                 1.8947                 2.3959
 Frc consts  --      1.3774                 0.8382                 1.1269
 IR Inten    --      9.9396                 6.1564                19.8218

                     25                     26                     27
                      A                      A                      A
 Frequencies --    906.4388               917.3479               922.3205
 Red. masses --      2.4474                 2.4773                 1.9983
 Frc consts  --      1.1847                 1.2283                 1.0016
 IR Inten    --     10.4544                 9.9429                65.6491

                     28                     29                     30
                      A                      A                      A
 Frequencies --    933.1468               949.1870               986.8842
 Red. masses --      2.1578                 1.5732                 1.8851
 Frc consts  --      1.1070                 0.8351                 1.0817
 IR Inten    --      8.7731                 5.0503                32.2489

                     31                     32                     33
                      A                      A                      A
 Frequencies --   1030.6750              1048.3545              1063.1006
 Red. masses --      2.1715                 2.5830                 1.5697
 Frc consts  --      1.3591                 1.6726                 1.0452
 IR Inten    --     21.9960               181.4489                81.7795

                     34                     35                     36
                      A                      A                      A
 Frequencies --   1067.9035              1071.9208              1087.8590
 Red. masses --      1.7856                 2.2879                 2.5303
 Frc consts  --      1.1998                 1.5489                 1.7643
 IR Inten    --     14.0262                16.3927               241.4514

                     37                     38                     39
                      A                      A                      A
 Frequencies --   1127.5919              1147.2780              1155.3859
 Red. masses --      2.1311                 4.0977                 2.4403
 Frc consts  --      1.5964                 3.1778                 1.9193
 IR Inten    --     94.9108                73.6966                15.0688

                     40                     41                     42
                      A                      A                      A
 Frequencies --   1170.8117              1177.4658              1214.4690
 Red. masses --      3.9080                 2.6117                 1.4090
 Frc consts  --      3.1563                 2.1334                 1.2244
 IR Inten    --    180.9004                20.5441                18.2983

                     43                     44                     45
                      A                      A                      A
 Frequencies --   1217.7123              1233.2831              1252.2543
 Red. masses --      1.3732                 1.6168                 1.4696
 Frc consts  --      1.1997                 1.4488                 1.3578
 IR Inten    --      4.9141                57.2437                37.9156

                     46                     47                     48
                      A                      A                      A
 Frequencies --   1287.3667              1289.0800              1320.4043
 Red. masses --      1.1891                 1.2167                 1.1506
 Frc consts  --      1.1611                 1.1912                 1.1819
 IR Inten    --     24.1493                10.3694                 9.7610

                     49                     50                     51
                      A                      A                      A
 Frequencies --   1328.4254              1341.2363              1359.8435
 Red. masses --      1.1808                 1.2699                 1.3463
 Frc consts  --      1.2277                 1.3460                 1.4668
 IR Inten    --      9.0410                 3.7887                11.2995

                     52                     53                     54
                      A                      A                      A
 Frequencies --   1372.1922              1373.8896              1382.0297
 Red. masses --      1.5320                 1.3336                 1.3135
 Frc consts  --      1.6996                 1.4831                 1.4781
 IR Inten    --     14.4821                 4.0132                27.1192

                     55                     56                     57
                      A                      A                      A
 Frequencies --   1388.3543              1392.5645              1402.3027
 Red. masses --      1.4619                 1.6946                 1.2536
 Frc consts  --      1.6603                 1.9362                 1.4524
 IR Inten    --      1.7101                14.8261                 7.0312

                     58                     59                     60
                      A                      A                      A
 Frequencies --   1406.8998              1423.4519              1429.2042
 Red. masses --      1.3795                 1.3590                 1.4812
 Frc consts  --      1.6088                 1.6224                 1.7826
 IR Inten    --      6.9990                12.0153                 5.0360

                     61                     62                     63
                      A                      A                      A
 Frequencies --   1435.3306              1475.0864              1481.8850
 Red. masses --      1.3228                 1.1054                 1.0867
 Frc consts  --      1.6057                 1.4171                 1.4060
 IR Inten    --     13.2809                 5.3806                 7.0405

                     64                     65                     66
                      A                      A                      A
 Frequencies --   1490.9877              1494.6489              1495.8043
 Red. masses --      1.0976                 1.1089                 1.0937
 Frc consts  --      1.4377                 1.4596                 1.4418
 IR Inten    --      2.0279                14.3821                11.8485

                     67                     68                     69
                      A                      A                      A
 Frequencies --   1503.2278              1507.7994              1517.8206
 Red. masses --      1.0777                 1.0943                 1.0988
 Frc consts  --      1.4348                 1.4658                 1.4915
 IR Inten    --      7.1076                 4.3657                 3.2999

                     70                     71                     72
                      A                      A                      A
 Frequencies --   3039.7207              3041.5571              3050.5566
 Red. masses --      1.0693                 1.0680                 1.0692
 Frc consts  --      5.8212                 5.8213                 5.8622
 IR Inten    --     94.6418                45.6683                56.7861

                     73                     74                     75
                      A                      A                      A
 Frequencies --   3062.9056              3069.5546              3073.7370
 Red. masses --      1.0629                 1.0774                 1.0654
 Frc consts  --      5.8751                 5.9813                 5.9308
 IR Inten    --     41.4883                20.9058                41.6639

                     76                     77                     78
                      A                      A                      A
 Frequencies --   3074.3624              3078.4706              3081.0698
 Red. masses --      1.0675                 1.0763                 1.0654
 Frc consts  --      5.9449                 6.0096                 5.9589
 IR Inten    --      8.2927                10.2578                75.5211

                     79                     80                     81
                      A                      A                      A
 Frequencies --   3082.8907              3112.9605              3115.6906
 Red. masses --      1.0712                 1.0982                 1.0957
 Frc consts  --      5.9982                 6.2701                 6.2671
 IR Inten    --     70.5857                40.2096                17.2701

                     82                     83                     84
                      A                      A                      A
 Frequencies --   3119.5815              3130.2606              3130.5077
 Red. masses --      1.1022                 1.1029                 1.1031
 Frc consts  --      6.3199                 6.3673                 6.3692
 IR Inten    --     61.1182                13.9536                64.4762

                     85                     86                     87
                      A                      A                      A
 Frequencies --   3133.7004              3135.3559              3137.3044
 Red. masses --      1.0996                 1.0976                 1.0976
 Frc consts  --      6.3620                 6.3573                 6.3649
 IR Inten    --     72.4884                47.3559                17.9656

 - Thermochemistry -
 -------------------
 Temperature   298.150 Kelvin.  Pressure   1.00000 Atm.
 Atom     1 has atomic number  6 and mass  12.00000

 Molecular mass:   186.12559 amu.
 Principal axes and moments of inertia in atomic units:
                           1         2         3
     Eigenvalues --   944.756574388.408464480.97661
           X            0.99987   0.01336  -0.00852
           Y           -0.01137   0.97942   0.20152
           Z            0.01104  -0.20140   0.97945
 This molecule is an asymmetric top.
 Rotational symmetry number  1.
 Warning -- assumption of classical behavior for rotation
           may cause significant error
 Rotational temperatures (Kelvin)      0.09168     0.01974     0.01933
 Rotational constants (GHZ):           1.91027     0.41125     0.40276
    1 imaginary frequencies ignored.
 Zero-point vibrational energy     736391.0 (Joules/Mol)
                                  176.00168 (Kcal/Mol)
 Warning -- explicit consideration of  16 degrees of freedom as
           vibrations may cause significant error
 Vibrational temperatures:     63.78    91.13   193.74   227.11   299.88
          (Kelvin)            354.01   392.38   435.99   525.08   594.17
                              605.28   634.98   672.92   772.85   799.14
                              857.93   959.06  1030.44  1181.55  1198.09
                             1208.48  1246.70  1285.53  1304.16  1319.86
                             1327.01  1342.59  1365.67  1419.91  1482.91
                             1508.35  1529.56  1536.47  1542.26  1565.19
                             1622.35  1650.68  1662.34  1684.54  1694.11
                             1747.35  1752.02  1774.42  1801.71  1852.23
                             1854.70  1899.77  1911.31  1929.74  1956.51
                             1974.28  1976.72  1988.43  1997.53  2003.59
                             2017.60  2024.22  2048.03  2056.31  2065.12
                             2122.32  2132.10  2145.20  2150.47  2152.13
                             2162.81  2169.39  2183.81  4373.48  4376.12
                             4389.07  4406.84  4416.40  4422.42  4423.32
                             4429.23  4432.97  4435.59  4478.86  4482.78
                             4488.38  4503.75  4504.10  4508.70  4511.08
                             4513.88

 Zero-point correction=                           0.280477 (Hartree/Particle)
 Thermal correction to Energy=                    0.291527
 Thermal correction to Enthalpy=                  0.292472
 Thermal correction to Gibbs Free Energy=         0.243041
 Sum of electronic and zero-point Energies=           -617.216331
 Sum of electronic and thermal Energies=              -617.205280
 Sum of electronic and thermal Enthalpies=            -617.204336
 Sum of electronic and thermal Free Energies=         -617.253766

                     E (Thermal)             CV                S
                      KCal/Mol        Cal/Mol-Kelvin    Cal/Mol-Kelvin
 Total                  182.936             44.753            104.035
 Electronic               0.000              0.000              0.000
 Translational            0.889              2.981             41.570
 Rotational               0.889              2.981             31.297
 Vibrational            181.159             38.792             31.168
 Vibration     1          0.595              1.980              5.056
 Vibration     2          0.597              1.972              4.350
 Vibration     3          0.613              1.919              2.878
 Vibration     4          0.621              1.894              2.575
 Vibration     5          0.642              1.828              2.057
 Vibration     6          0.661              1.769              1.759
 Vibration     7          0.676              1.724              1.579
 Vibration     8          0.694              1.668              1.400
 Vibration     9          0.738              1.544              1.101
 Vibration    10          0.777              1.442              0.916
 Vibration    11          0.783              1.425              0.890
 Vibration    12          0.801              1.380              0.822
 Vibration    13          0.825              1.322              0.744
 Vibration    14          0.892              1.168              0.571
 Vibration    15          0.911              1.128              0.533
 Vibration    16          0.954              1.040              0.456

                           ! Non-Optimized Parameters !
 Normal termination of Gaussian 16 at Sun Nov  4 22:50:50 2018.
