 Gaussian 16, Revision A.03,
 Gaussian 16:  ES64L-G16RevA.03 25-Dec-2016

 ----------------------------------------------------------------------
 #M062X/6-311++G(2d,2p) opt=ModRedundant freq=noraman SCRF=(Solvent=Wat
 er)
 ----------------------------------------------------------------------

 -----------------------------
 D_a1-4_2SO_PSI.inp_extract_13
 -----------------------------
 Symbolic Z-matrix:
 Charge =  0 Multiplicity = 1

 SCF Done:  E(RM062X) =  -617.490237047     A.U. after   12 cycles
 SCF Done:  E(RM062X) =  -617.492117724     A.U. after   12 cycles
 SCF Done:  E(RM062X) =  -617.492573422     A.U. after   10 cycles
 SCF Done:  E(RM062X) =  -617.492767983     A.U. after    9 cycles
 SCF Done:  E(RM062X) =  -617.492787780     A.U. after   10 cycles
 SCF Done:  E(RM062X) =  -617.492792400     A.U. after    8 cycles
 SCF Done:  E(RM062X) =  -617.492793015     A.U. after    8 cycles
 SCF Done:  E(RM062X) =  -617.492793182     A.U. after    7 cycles
 Optimization completed.
    -- Stationary point found.
 Normal termination of Gaussian 16 at Sun Nov  4 21:59:58 2018.

 ----------------------------------------------------------------------
 #N Geom=AllCheck Guess=TCheck SCRF=Check GenChk RM062X/6-311++G(2d,2p)
  Freq
 ----------------------------------------------------------------------

 Structure from the checkpoint file:  "D_a1-4_2SO_PSI.inp_extract_13.chk"
 -----------------------------
 D_a1-4_2SO_PSI.inp_extract_13
 -----------------------------
 Charge =  0 Multiplicity = 1

                         Standard orientation:
 ---------------------------------------------------------------------
 Center     Atomic      Atomic             Coordinates (Angstroms)
 Number     Number       Type             X           Y           Z
 ---------------------------------------------------------------------
      1          6           0       -1.061943   -0.462822    1.017760
      2          6           0       -3.227266    0.350398   -0.818513
      3          8           0        1.023625    0.591050   -0.989633
      4          6           0       -1.887434   -1.353397    0.085640
      5          6           0       -1.499633    0.997970    0.859987
      6          8           0        0.354212   -0.621417    0.898580
      7          6           0        2.288002   -1.337008   -0.249489
      8          6           0        3.252218   -0.427548    0.510629
      9          6           0        0.919883   -0.684735   -0.385797
     10          6           0        3.283557    0.947661   -0.154558
     11          6           0        1.869889    1.492041   -0.276661
     12          6           0       -2.991231    1.032555    0.535949
     13          8           0       -2.253859   -0.659730   -1.092065
     14          1           0       -1.265437   -0.785498    2.040126
     15          1           0       -4.226737   -0.092192   -0.860511
     16          1           0       -3.133009    1.071441   -1.628899
     17          1           0       -1.329152   -2.240057   -0.208066
     18          1           0       -2.784001   -1.692101    0.613517
     19          1           0       -0.941508    1.441593    0.036658
     20          1           0       -1.268269    1.556809    1.765148
     21          1           0        2.171383   -2.301407    0.243220
     22          1           0        2.668419   -1.516914   -1.256768
     23          1           0        2.918462   -0.324548    1.545051
     24          1           0        4.247639   -0.870019    0.532694
     25          1           0        0.281885   -1.249231   -1.064101
     26          1           0        3.892676    1.648890    0.416736
     27          1           0        3.720239    0.865060   -1.152854
     28          1           0        1.846104    2.423721   -0.838077
     29          1           0        1.448232    1.676638    0.715746
     30          1           0       -3.550727    0.523539    1.323182
     31          1           0       -3.364274    2.054357    0.492471
 ---------------------------------------------------------------------

 SCF Done:  E(RM062X) =  -617.492793182     A.U. after    1 cycles

 The electronic state is 1-A.
 Alpha  occ. eigenvalues --  -19.63027 -19.62867 -19.62606 -10.63251 -10.58886
 Alpha  occ. eigenvalues --  -10.58246 -10.58070 -10.57586 -10.53312 -10.52922
 Alpha  occ. eigenvalues --  -10.52884 -10.52806 -10.52779  -1.19597  -1.16336
 Alpha  occ. eigenvalues --   -1.13078  -0.90800  -0.89500  -0.86766  -0.84570
 Alpha  occ. eigenvalues --   -0.75234  -0.74423  -0.72915  -0.70637  -0.65269
 Alpha  occ. eigenvalues --   -0.61455  -0.60926  -0.58768  -0.57403  -0.56570
 Alpha  occ. eigenvalues --   -0.53816  -0.52877  -0.52665  -0.50417  -0.49179
 Alpha  occ. eigenvalues --   -0.47180  -0.46223  -0.45791  -0.45413  -0.45183
 Alpha  occ. eigenvalues --   -0.43829  -0.42440  -0.41745  -0.40520  -0.40021
 Alpha  occ. eigenvalues --   -0.38130  -0.37227  -0.36648  -0.34275  -0.32859
 Alpha  occ. eigenvalues --   -0.31737
 Alpha virt. eigenvalues --   -0.00177   0.00763   0.00918   0.01030   0.02294
 Alpha virt. eigenvalues --    0.02510   0.02639   0.03324   0.03412   0.04431
 Alpha virt. eigenvalues --    0.04637   0.05016   0.05618   0.05720   0.07090

 Mulliken charges:
               1
     1  C    0.099181
     2  C   -0.227858
     3  O   -0.260179
     4  C   -0.372326
     5  C   -0.327666
     6  O   -0.291949
     7  C   -0.386406
     8  C   -0.309443
     9  C   -0.189127
    10  C   -0.432286
    11  C   -0.107215
    12  C   -0.375006
    13  O   -0.287022
    14  H    0.254248
    15  H    0.177873
    16  H    0.176277
    17  H    0.189050
    18  H    0.177522
    19  H    0.212119
    20  H    0.190865
    21  H    0.179593
    22  H    0.182992
    23  H    0.180236
    24  H    0.187909
    25  H    0.322270
    26  H    0.171390
    27  H    0.163757
    28  H    0.210953
    29  H    0.146638
    30  H    0.186016
    31  H    0.157596
 Sum of Mulliken charges =  -0.00000

 Dipole moment (field-independent basis, Debye):
    X=             -0.6528    Y=              0.3618    Z=              2.1262  Tot=              2.2534
 Quadrupole moment (field-independent basis, Debye-Ang):
   XX=            -69.7889   YY=            -75.7191   ZZ=            -85.0124
   XY=             -0.9588   XZ=             -4.3787   YZ=              0.0855

  Exact polarizability: 172.026  -0.862 160.017   0.203  -0.366 149.819
 Approx polarizability: 144.811  -0.024 142.905  -0.851  -0.938 142.443

                      1                      2                      3
                      A                      A                      A
 Frequencies --     43.3065                66.5687                94.6337
 Red. masses --      3.7526                 3.4268                 3.3920
 Frc consts  --      0.0041                 0.0089                 0.0179
 IR Inten    --      0.2170                 0.8929                 2.7578

                      4                      5                      6
                      A                      A                      A
 Frequencies --    129.1248               188.0353               214.6771
 Red. masses --      3.3691                 3.3808                 2.4727
 Frc consts  --      0.0331                 0.0704                 0.0671
 IR Inten    --      4.7825                 8.4488                 3.5755

                      7                      8                      9
                      A                      A                      A
 Frequencies --    246.7149               307.3617               320.1458
 Red. masses --      2.2465                 2.0914                 3.4822
 Frc consts  --      0.0806                 0.1164                 0.2103
 IR Inten    --      4.5217                 4.8067                 3.2627

                     10                     11                     12
                      A                      A                      A
 Frequencies --    343.2579               399.4634               436.6813
 Red. masses --      2.5744                 2.4861                 3.5081
 Frc consts  --      0.1787                 0.2337                 0.3941
 IR Inten    --      4.5805                14.1081                10.9645

                     13                     14                     15
                      A                      A                      A
 Frequencies --    452.8368               458.8168               532.3899
 Red. masses --      3.6940                 2.1969                 2.5718
 Frc consts  --      0.4463                 0.2725                 0.4295
 IR Inten    --      1.8382                 3.8683                 3.8711

                     16                     17                     18
                      A                      A                      A
 Frequencies --    553.9974               629.9644               676.8302
 Red. masses --      3.0937                 2.6123                 2.5415
 Frc consts  --      0.5594                 0.6108                 0.6860
 IR Inten    --      7.8900                19.9214                 4.6750

                     19                     20                     21
                      A                      A                      A
 Frequencies --    681.6011               802.7727               836.4953
 Red. masses --      2.7986                 2.5244                 1.5278
 Frc consts  --      0.7660                 0.9585                 0.6299
 IR Inten    --      2.6112                 5.3011                 5.2296

                     22                     23                     24
                      A                      A                      A
 Frequencies --    843.6174               859.6455               893.1657
 Red. masses --      3.3883                 1.8370                 2.3516
 Frc consts  --      1.4208                 0.7998                 1.1053
 IR Inten    --      8.0485                 8.7824                24.7458

                     25                     26                     27
                      A                      A                      A
 Frequencies --    902.0358               913.3265               923.7408
 Red. masses --      2.4217                 2.4324                 2.3064
 Frc consts  --      1.1609                 1.1954                 1.1595
 IR Inten    --     11.6884                10.0827                44.5750

                     28                     29                     30
                      A                      A                      A
 Frequencies --    926.6744               954.0070               983.0735
 Red. masses --      1.7721                 1.6357                 1.9416
 Frc consts  --      0.8966                 0.8771                 1.1056
 IR Inten    --     29.4041                 8.6511                51.3424

                     31                     32                     33
                      A                      A                      A
 Frequencies --   1018.4401              1045.8320              1061.4679
 Red. masses --      2.1465                 2.2757                 1.7040
 Frc consts  --      1.3117                 1.4665                 1.1312
 IR Inten    --     65.5913                82.0885                38.8809

                     34                     35                     36
                      A                      A                      A
 Frequencies --   1063.5025              1072.2377              1082.7065
 Red. masses --      1.5938                 2.2785                 2.3999
 Frc consts  --      1.0621                 1.5434                 1.6575
 IR Inten    --     41.4910                12.4787               185.4353

                     37                     38                     39
                      A                      A                      A
 Frequencies --   1137.6877              1145.3143              1154.8438
 Red. masses --      2.5732                 4.0819                 2.4884
 Frc consts  --      1.9623                 3.1547                 1.9553
 IR Inten    --     88.0754               151.1759                 8.7440

                     40                     41                     42
                      A                      A                      A
 Frequencies --   1160.1128              1189.4077              1210.4007
 Red. masses --      2.2759                 3.6903                 1.4022
 Frc consts  --      1.8047                 3.0759                 1.2104
 IR Inten    --     17.5793               189.5538                14.3810

                     43                     44                     45
                      A                      A                      A
 Frequencies --   1219.7444              1234.5761              1250.9114
 Red. masses --      1.4024                 1.6681                 1.4734
 Frc consts  --      1.2293                 1.4979                 1.3584
 IR Inten    --      7.9669                50.7161                40.2242

                     46                     47                     48
                      A                      A                      A
 Frequencies --   1286.8028              1288.8456              1319.7145
 Red. masses --      1.2239                 1.2109                 1.1510
 Frc consts  --      1.1940                 1.1851                 1.1810
 IR Inten    --     41.3366                 4.9594                 8.2880

                     49                     50                     51
                      A                      A                      A
 Frequencies --   1326.4256              1344.0032              1357.4690
 Red. masses --      1.1990                 1.3285                 1.3457
 Frc consts  --      1.2429                 1.4138                 1.4611
 IR Inten    --     13.7344                14.3169                 7.2454

                     52                     53                     54
                      A                      A                      A
 Frequencies --   1370.6547              1378.1744              1387.0206
 Red. masses --      1.5035                 1.3883                 1.4650
 Frc consts  --      1.6642                 1.5536                 1.6606
 IR Inten    --     16.9132                 7.1494                 1.2243

                     55                     56                     57
                      A                      A                      A
 Frequencies --   1390.4444              1394.4557              1399.2981
 Red. masses --      1.5190                 1.3767                 1.3491
 Frc consts  --      1.7303                 1.5773                 1.5564
 IR Inten    --      0.6425                13.4995                 1.2610

                     58                     59                     60
                      A                      A                      A
 Frequencies --   1414.4315              1422.8945              1427.2653
 Red. masses --      1.3271                 1.3099                 1.3733
 Frc consts  --      1.5643                 1.5625                 1.6482
 IR Inten    --     17.2668                 4.4458                10.8564

                     61                     62                     63
                      A                      A                      A
 Frequencies --   1438.8357              1476.5436              1482.4748
 Red. masses --      1.2681                 1.1042                 1.0857
 Frc consts  --      1.5467                 1.4183                 1.4059
 IR Inten    --     15.4710                 4.5258                 7.9234

                     64                     65                     66
                      A                      A                      A
 Frequencies --   1494.0753              1496.0836              1500.5199
 Red. masses --      1.0931                 1.1055                 1.0888
 Frc consts  --      1.4377                 1.4579                 1.4443
 IR Inten    --      4.2318                11.4905                 9.3972

                     67                     68                     69
                      A                      A                      A
 Frequencies --   1510.2255              1512.0777              1524.6504
 Red. masses --      1.0927                 1.0846                 1.0873
 Frc consts  --      1.4684                 1.4611                 1.4891
 IR Inten    --      2.1122                 5.2997                16.1363

                     70                     71                     72
                      A                      A                      A
 Frequencies --   3042.2154              3047.3403              3053.4213
 Red. masses --      1.0683                 1.0703                 1.0684
 Frc consts  --      5.8253                 5.8557                 5.8691
 IR Inten    --     98.8983                27.5005                44.4331

                     73                     74                     75
                      A                      A                      A
 Frequencies --   3063.0831              3071.9128              3073.4348
 Red. masses --      1.0625                 1.0626                 1.0679
 Frc consts  --      5.8737                 5.9082                 5.9432
 IR Inten    --     43.3748                30.9965                51.6704

                     76                     77                     78
                      A                      A                      A
 Frequencies --   3077.1947              3081.8750              3095.9408
 Red. masses --      1.0625                 1.0854                 1.0602
 Frc consts  --      5.9277                 6.0739                 5.9872
 IR Inten    --     28.4050                60.4332                25.3658

                     79                     80                     81
                      A                      A                      A
 Frequencies --   3112.1941              3115.8707              3117.8965
 Red. masses --      1.0975                 1.0955                 1.1006
 Frc consts  --      6.2631                 6.2664                 6.3040
 IR Inten    --     52.8472                19.7098                46.2545

                     82                     83                     84
                      A                      A                      A
 Frequencies --   3119.7438              3130.2774              3131.5971
 Red. masses --      1.0895                 1.1028                 1.0990
 Frc consts  --      6.2476                 6.3667                 6.3503
 IR Inten    --     47.9785                41.2941                49.0017

                     85                     86                     87
                      A                      A                      A
 Frequencies --   3132.5760              3137.7976              3146.1222
 Red. masses --      1.0984                 1.0943                 1.1053
 Frc consts  --      6.3509                 6.3481                 6.4459
 IR Inten    --     66.5750                24.7693                26.1062

 - Thermochemistry -
 -------------------
 Temperature   298.150 Kelvin.  Pressure   1.00000 Atm.
 Atom     1 has atomic number  6 and mass  12.00000

 Molecular mass:   186.12559 amu.
 Principal axes and moments of inertia in atomic units:
                           1         2         3
     Eigenvalues --  1021.741443695.737813940.86202
           X            0.99998  -0.00503  -0.00422
           Y            0.00511   0.99982   0.01850
           Z            0.00412  -0.01852   0.99982
 This molecule is an asymmetric top.
 Rotational symmetry number  1.
 Warning -- assumption of classical behavior for rotation
           may cause significant error
 Rotational temperatures (Kelvin)      0.08477     0.02344     0.02198
 Rotational constants (GHZ):           1.76634     0.48833     0.45796
 Zero-point vibrational energy     737832.9 (Joules/Mol)
                                  176.34630 (Kcal/Mol)
 Warning -- explicit consideration of  16 degrees of freedom as
           vibrations may cause significant error
 Vibrational temperatures:     62.31    95.78   136.16   185.78   270.54
          (Kelvin)            308.87   354.97   442.22   460.62   493.87
                              574.74   628.29   651.53   660.14   765.99
                              797.08   906.38   973.81   980.67  1155.01
                             1203.53  1213.78  1236.84  1285.07  1297.83
                             1314.07  1329.06  1333.28  1372.60  1414.42
                             1465.31  1504.72  1527.22  1530.14  1542.71
                             1557.77  1636.88  1647.85  1661.56  1669.14
                             1711.29  1741.50  1754.94  1776.28  1799.78
                             1851.42  1854.36  1898.77  1908.43  1933.72
                             1953.10  1972.07  1982.89  1995.61  2000.54
                             2006.31  2013.28  2035.05  2047.23  2053.52
                             2070.16  2124.42  2132.95  2149.64  2152.53
                             2158.91  2172.88  2175.54  2193.63  4377.07
                             4384.44  4393.19  4407.09  4419.80  4421.99
                             4427.40  4434.13  4454.37  4477.75  4483.04
                             4485.96  4488.62  4503.77  4505.67  4507.08
                             4514.59  4526.57

 Zero-point correction=                           0.281026 (Hartree/Particle)
 Thermal correction to Energy=                    0.292725
 Thermal correction to Enthalpy=                  0.293670
 Thermal correction to Gibbs Free Energy=         0.242917
 Sum of electronic and zero-point Energies=           -617.211767
 Sum of electronic and thermal Energies=              -617.200068
 Sum of electronic and thermal Enthalpies=            -617.199124
 Sum of electronic and thermal Free Energies=         -617.249876

                     E (Thermal)             CV                S
                      KCal/Mol        Cal/Mol-Kelvin    Cal/Mol-Kelvin
 Total                  183.688             46.640            106.817
 Electronic               0.000              0.000              0.000
 Translational            0.889              2.981             41.570
 Rotational               0.889              2.981             31.076
 Vibrational            181.911             40.678             34.171
 Vibration     1          0.595              1.980              5.102
 Vibration     2          0.598              1.970              4.252
 Vibration     3          0.603              1.953              3.562
 Vibration     4          0.612              1.924              2.959
 Vibration     5          0.633              1.856              2.247
 Vibration     6          0.645              1.819              2.004
 Vibration     7          0.661              1.768              1.754
 Vibration     8          0.697              1.660              1.376
 Vibration     9          0.706              1.635              1.309
 Vibration    10          0.722              1.589              1.197
 Vibration    11          0.766              1.471              0.965
 Vibration    12          0.797              1.390              0.837
 Vibration    13          0.811              1.355              0.787
 Vibration    14          0.817              1.341              0.770
 Vibration    15          0.887              1.178              0.582
 Vibration    16          0.909              1.131              0.536

                           ! Non-Optimized Parameters !
 Normal termination of Gaussian 16 at Sun Nov  4 22:52:51 2018.
