 Gaussian 16, Revision A.03,
 Gaussian 16:  ES64L-G16RevA.03 25-Dec-2016

 ----------------------------------------------------------------------
 #M062X/6-311++G(2d,2p) opt=ModRedundant freq=noraman SCRF=(Solvent=Wat
 er)
 ----------------------------------------------------------------------

 ----------------------------
 D_a1-4_2SO_PSI.inp_extract_9
 ----------------------------
 Symbolic Z-matrix:
 Charge =  0 Multiplicity = 1

 SCF Done:  E(RM062X) =  -617.488509172     A.U. after   12 cycles
 SCF Done:  E(RM062X) =  -617.490230397     A.U. after   11 cycles
 SCF Done:  E(RM062X) =  -617.490474242     A.U. after   11 cycles
 SCF Done:  E(RM062X) =  -617.490705149     A.U. after   11 cycles
 SCF Done:  E(RM062X) =  -617.490715302     A.U. after   10 cycles
 SCF Done:  E(RM062X) =  -617.490719737     A.U. after    8 cycles
 SCF Done:  E(RM062X) =  -617.490720335     A.U. after    8 cycles
 SCF Done:  E(RM062X) =  -617.490720505     A.U. after    8 cycles
 SCF Done:  E(RM062X) =  -617.490720538     A.U. after    6 cycles
 Optimization completed.
    -- Stationary point found.
 Normal termination of Gaussian 16 at Sun Nov  4 22:04:38 2018.

 ----------------------------------------------------------------------
 #N Geom=AllCheck Guess=TCheck SCRF=Check GenChk RM062X/6-311++G(2d,2p)
  Freq
 ----------------------------------------------------------------------

 Structure from the checkpoint file:  "D_a1-4_2SO_PSI.inp_extract_9.chk"
 ----------------------------
 D_a1-4_2SO_PSI.inp_extract_9
 ----------------------------
 Charge =  0 Multiplicity = 1

                         Standard orientation:
 ---------------------------------------------------------------------
 Center     Atomic      Atomic             Coordinates (Angstroms)
 Number     Number       Type             X           Y           Z
 ---------------------------------------------------------------------
      1          6           0       -1.067526   -1.122533   -0.199398
      2          6           0       -3.127522    0.987397    0.159813
      3          8           0        1.146742    0.822215   -0.918827
      4          6           0       -1.582774   -0.103265   -1.227127
      5          6           0       -1.756868   -0.842661    1.137650
      6          8           0        0.342258   -1.138303    0.059280
      7          6           0        2.631390   -1.037400   -0.475593
      8          6           0        3.056461   -0.396578    0.845233
      9          6           0        1.232717   -0.584939   -0.869610
     10          6           0        2.890532    1.119743    0.752815
     11          6           0        1.474848    1.458402    0.314989
     12          6           0       -3.182413   -0.358241    0.895145
     13          8           0       -1.934152    1.120145   -0.610146
     14          1           0       -1.335438   -2.118618   -0.563800
     15          1           0       -3.997301    1.111486   -0.492357
     16          1           0       -3.108462    1.810960    0.871906
     17          1           0       -0.853892    0.120454   -1.997949
     18          1           0       -2.462318   -0.534436   -1.716695
     19          1           0       -1.188287   -0.061542    1.644492
     20          1           0       -1.733884   -1.730635    1.767178
     21          1           0        2.649280   -2.124928   -0.419414
     22          1           0        3.312521   -0.729713   -1.271088
     23          1           0        2.433858   -0.782492    1.654656
     24          1           0        4.088548   -0.659724    1.074856
     25          1           0        0.991160   -0.915892   -1.882104
     26          1           0        3.097387    1.598024    1.710749
     27          1           0        3.594484    1.523944    0.021136
     28          1           0        1.354665    2.524563    0.135470
     29          1           0        0.754824    1.155051    1.079689
     30          1           0       -3.725901   -1.098123    0.304907
     31          1           0       -3.723097   -0.240381    1.832403
 ---------------------------------------------------------------------

 SCF Done:  E(RM062X) =  -617.490720538     A.U. after    1 cycles

 The electronic state is 1-A.
 Alpha  occ. eigenvalues --  -19.62799 -19.62592 -19.62559 -10.63389 -10.58924
 Alpha  occ. eigenvalues --  -10.57954 -10.57929 -10.57524 -10.53280 -10.53119
 Alpha  occ. eigenvalues --  -10.52943 -10.52873 -10.52734  -1.19665  -1.16087
 Alpha  occ. eigenvalues --   -1.12998  -0.90867  -0.89577  -0.86641  -0.84460
 Alpha  occ. eigenvalues --   -0.75404  -0.74055  -0.72711  -0.70749  -0.64683
 Alpha  occ. eigenvalues --   -0.61697  -0.60555  -0.59102  -0.57949  -0.56146
 Alpha  occ. eigenvalues --   -0.53842  -0.52978  -0.52569  -0.49890  -0.49239
 Alpha  occ. eigenvalues --   -0.48078  -0.46817  -0.45355  -0.45010  -0.44014
 Alpha  occ. eigenvalues --   -0.43702  -0.42466  -0.41534  -0.40627  -0.39768
 Alpha  occ. eigenvalues --   -0.38317  -0.36914  -0.36286  -0.34118  -0.33003
 Alpha  occ. eigenvalues --   -0.31880
 Alpha virt. eigenvalues --   -0.00148   0.00786   0.00805   0.01113   0.02305
 Alpha virt. eigenvalues --    0.02519   0.02629   0.03271   0.03356   0.04596
 Alpha virt. eigenvalues --    0.04711   0.04896   0.05612   0.05749   0.06981

 Mulliken charges:
               1
     1  C   -0.085326
     2  C   -0.288532
     3  O   -0.235516
     4  C   -0.426427
     5  C   -0.147496
     6  O   -0.289800
     7  C   -0.490895
     8  C   -0.300071
     9  C   -0.033220
    10  C   -0.385739
    11  C   -0.111261
    12  C   -0.267070
    13  O   -0.294751
    14  H    0.243693
    15  H    0.169841
    16  H    0.178542
    17  H    0.244376
    18  H    0.180878
    19  H    0.168639
    20  H    0.192731
    21  H    0.185992
    22  H    0.197063
    23  H    0.169462
    24  H    0.188301
    25  H    0.215360
    26  H    0.171320
    27  H    0.161181
    28  H    0.205267
    29  H    0.137785
    30  H    0.183476
    31  H    0.162200
 Sum of Mulliken charges =  -0.00000

 Dipole moment (field-independent basis, Debye):
    X=             -0.9963    Y=             -1.7736    Z=              0.8888  Tot=              2.2199
 Quadrupole moment (field-independent basis, Debye-Ang):
   XX=            -69.3950   YY=            -82.0894   ZZ=            -78.9322
   XY=              2.8525   XZ=             -0.8671   YZ=              6.0083

  Exact polarizability: 171.908  -1.108 157.662  -1.036   3.064 154.364
 Approx polarizability: 145.606   1.026 143.350  -1.231   1.687 142.807

                      1                      2                      3
                      A                      A                      A
 Frequencies --     37.3359                53.5442               103.8044
 Red. masses --      3.5560                 3.9856                 3.4411
 Frc consts  --      0.0029                 0.0067                 0.0218
 IR Inten    --      1.3011                 1.7612                 1.0910

                      4                      5                      6
                      A                      A                      A
 Frequencies --    144.7573               175.1641               207.8770
 Red. masses --      3.4429                 3.4960                 2.5839
 Frc consts  --      0.0425                 0.0632                 0.0658
 IR Inten    --      4.9051                 5.3631                 5.1302

                      7                      8                      9
                      A                      A                      A
 Frequencies --    237.4944               301.8438               313.3880
 Red. masses --      2.1553                 2.8053                 3.0060
 Frc consts  --      0.0716                 0.1506                 0.1739
 IR Inten    --      3.8717                 7.2816                 8.2707

                     10                     11                     12
                      A                      A                      A
 Frequencies --    352.6483               399.4567               431.5138
 Red. masses --      2.0531                 2.8366                 2.6903
 Frc consts  --      0.1504                 0.2667                 0.2951
 IR Inten    --      3.3121                 5.8963                 3.8600

                     13                     14                     15
                      A                      A                      A
 Frequencies --    455.6120               466.9906               533.0068
 Red. masses --      3.3919                 2.3539                 2.3504
 Frc consts  --      0.4148                 0.3025                 0.3934
 IR Inten    --      3.3313                 7.5325                 5.5280

                     16                     17                     18
                      A                      A                      A
 Frequencies --    566.5211               611.7524               667.0956
 Red. masses --      3.4211                 2.4880                 2.5715
 Frc consts  --      0.6469                 0.5486                 0.6742
 IR Inten    --      3.2722                13.6878                12.2806

                     19                     20                     21
                      A                      A                      A
 Frequencies --    693.9772               809.0144               835.2197
 Red. masses --      2.9424                 2.4061                 1.6246
 Frc consts  --      0.8349                 0.9279                 0.6677
 IR Inten    --      4.5864                10.3732                 1.1080

                     22                     23                     24
                      A                      A                      A
 Frequencies --    841.1331               856.8108               892.9656
 Red. masses --      3.1016                 1.7965                 2.3430
 Frc consts  --      1.2929                 0.7770                 1.1008
 IR Inten    --      8.4495                 4.7525                29.5795

                     25                     26                     27
                      A                      A                      A
 Frequencies --    907.9961               918.3466               920.2600
 Red. masses --      2.5316                 2.3647                 2.3394
 Frc consts  --      1.2297                 1.1750                 1.1673
 IR Inten    --      8.0627                19.4518                32.6794

                     28                     29                     30
                      A                      A                      A
 Frequencies --    928.9104               945.1597               991.2343
 Red. masses --      1.8511                 1.6109                 1.9334
 Frc consts  --      0.9411                 0.8479                 1.1192
 IR Inten    --     12.9624                13.6497                21.7835

                     31                     32                     33
                      A                      A                      A
 Frequencies --   1024.4258              1042.4608              1063.6690
 Red. masses --      2.1770                 2.3463                 1.5961
 Frc consts  --      1.3461                 1.5023                 1.0640
 IR Inten    --     76.9285                76.7674                41.1427

                     34                     35                     36
                      A                      A                      A
 Frequencies --   1067.8625              1072.3680              1080.6928
 Red. masses --      1.7163                 2.0912                 2.3947
 Frc consts  --      1.1531                 1.4169                 1.6478
 IR Inten    --     26.5444                23.5392               185.4108

                     37                     38                     39
                      A                      A                      A
 Frequencies --   1134.6586              1145.0449              1147.7401
 Red. masses --      2.1433                 3.5365                 3.0263
 Frc consts  --      1.6258                 2.7319                 2.3488
 IR Inten    --     50.1060               157.2502                87.8522

                     40                     41                     42
                      A                      A                      A
 Frequencies --   1174.2447              1189.6153              1212.5636
 Red. masses --      2.4727                 4.2393                 1.4105
 Frc consts  --      2.0088                 3.5347                 1.2219
 IR Inten    --     30.5310               182.3355                19.4178

                     43                     44                     45
                      A                      A                      A
 Frequencies --   1219.7866              1234.5064              1253.8793
 Red. masses --      1.4250                 1.6504                 1.4634
 Frc consts  --      1.2492                 1.4819                 1.3556
 IR Inten    --      9.4585                45.5629                37.3407

                     46                     47                     48
                      A                      A                      A
 Frequencies --   1287.7249              1290.3765              1318.3045
 Red. masses --      1.2177                 1.1990                 1.1542
 Frc consts  --      1.1897                 1.1763                 1.1818
 IR Inten    --     21.6827                17.5181                 9.2154

                     49                     50                     51
                      A                      A                      A
 Frequencies --   1331.9682              1339.8326              1360.4979
 Red. masses --      1.2037                 1.2684                 1.3405
 Frc consts  --      1.2582                 1.3416                 1.4619
 IR Inten    --      7.6231                 3.6890                25.4374

                     52                     53                     54
                      A                      A                      A
 Frequencies --   1368.6025              1377.1647              1384.7375
 Red. masses --      1.4390                 1.3735                 1.3610
 Frc consts  --      1.5881                 1.5348                 1.5376
 IR Inten    --     24.4382                 3.7968                 6.9586

                     55                     56                     57
                      A                      A                      A
 Frequencies --   1387.6156              1393.7797              1400.1695
 Red. masses --      1.4543                 1.6482                 1.2561
 Frc consts  --      1.6499                 1.8865                 1.4508
 IR Inten    --      4.5730                18.8168                 2.5764

                     58                     59                     60
                      A                      A                      A
 Frequencies --   1410.1142              1418.4258              1432.1923
 Red. masses --      1.3310                 1.4356                 1.3320
 Frc consts  --      1.5594                 1.7018                 1.6098
 IR Inten    --      2.5835                 8.8446                15.6591

                     61                     62                     63
                      A                      A                      A
 Frequencies --   1435.5008              1475.9518              1481.9909
 Red. masses --      1.3320                 1.1050                 1.0861
 Frc consts  --      1.6172                 1.4182                 1.4054
 IR Inten    --     15.5819                 4.3022                 8.2936

                     64                     65                     66
                      A                      A                      A
 Frequencies --   1491.8810              1496.1788              1499.1395
 Red. masses --      1.0966                 1.1074                 1.0902
 Frc consts  --      1.4380                 1.4606                 1.4436
 IR Inten    --      4.8759                13.1591                 8.3187

                     67                     68                     69
                      A                      A                      A
 Frequencies --   1508.2338              1510.5241              1520.2444
 Red. masses --      1.0795                 1.0903                 1.0975
 Frc consts  --      1.4469                 1.4658                 1.4944
 IR Inten    --      7.8778                11.1637                 9.1643

                     70                     71                     72
                      A                      A                      A
 Frequencies --   3033.7298              3038.8543              3051.7931
 Red. masses --      1.0760                 1.0689                 1.0821
 Frc consts  --      5.8346                 5.8159                 5.9377
 IR Inten    --     33.9751                76.0263               115.1374

                     73                     74                     75
                      A                      A                      A
 Frequencies --   3058.6818              3065.4800              3069.4885
 Red. masses --      1.0676                 1.0628                 1.0766
 Frc consts  --      5.8847                 5.8844                 5.9762
 IR Inten    --     31.7925                58.8057                37.7166

                     76                     77                     78
                      A                      A                      A
 Frequencies --   3072.5222              3075.8268              3082.0735
 Red. masses --      1.0642                 1.0678                 1.0696
 Frc consts  --      5.9190                 5.9521                 5.9863
 IR Inten    --     20.6797                32.6612                85.4171

                     79                     80                     81
                      A                      A                      A
 Frequencies --   3084.4159              3112.3437              3114.8330
 Red. masses --      1.0599                 1.0975                 1.0955
 Frc consts  --      5.9411                 6.2638                 6.2624
 IR Inten    --     37.9711                38.3232                16.5265

                     82                     83                     84
                      A                      A                      A
 Frequencies --   3118.1212              3131.1751              3132.1630
 Red. masses --      1.1026                 1.1030                 1.1010
 Frc consts  --      6.3160                 6.3715                 6.3637
 IR Inten    --     69.2474                44.9335                53.5544

                     85                     86                     87
                      A                      A                      A
 Frequencies --   3133.5187              3134.5853              3182.5659
 Red. masses --      1.1017                 1.1010                 1.0901
 Frc consts  --      6.3736                 6.3740                 6.5054
 IR Inten    --     79.6929                17.3136                19.8655

 - Thermochemistry -
 -------------------
 Temperature   298.150 Kelvin.  Pressure   1.00000 Atm.
 Atom     1 has atomic number  6 and mass  12.00000

 Molecular mass:   186.12559 amu.
 Principal axes and moments of inertia in atomic units:
                           1         2         3
     Eigenvalues --  1086.765663566.453243778.16723
           X            0.99999   0.00447   0.00110
           Y           -0.00454   0.99669   0.08116
           Z           -0.00073  -0.08117   0.99670
 This molecule is an asymmetric top.
 Rotational symmetry number  1.
 Warning -- assumption of classical behavior for rotation
           may cause significant error
 Rotational temperatures (Kelvin)      0.07970     0.02429     0.02292
 Rotational constants (GHZ):           1.66065     0.50603     0.47768
 Zero-point vibrational energy     737364.3 (Joules/Mol)
                                  176.23429 (Kcal/Mol)
 Warning -- explicit consideration of  17 degrees of freedom as
           vibrations may cause significant error
 Vibrational temperatures:     53.72    77.04   149.35   208.27   252.02
          (Kelvin)            299.09   341.70   434.29   450.90   507.38
                              574.73   620.85   655.52   671.90   766.88
                              815.10   880.18   959.80   998.48  1163.99
                             1201.69  1210.20  1232.76  1284.78  1306.40
                             1321.30  1324.05  1336.49  1359.87  1426.17
                             1473.92  1499.87  1530.38  1536.42  1542.90
                             1554.88  1632.52  1647.46  1651.34  1689.48
                             1711.59  1744.61  1755.00  1776.18  1804.05
                             1852.75  1856.56  1896.75  1916.41  1927.72
                             1957.45  1969.11  1981.43  1992.33  1996.47
                             2005.34  2014.53  2028.84  2040.80  2060.61
                             2065.37  2123.57  2132.25  2146.48  2152.67
                             2156.93  2170.01  2173.31  2187.29  4364.86
                             4372.23  4390.85  4400.76  4410.54  4416.31
                             4420.67  4425.43  4434.42  4437.79  4477.97
                             4481.55  4486.28  4505.06  4506.48  4508.43
                             4509.97  4579.00

 Zero-point correction=                           0.280847 (Hartree/Particle)
 Thermal correction to Energy=                    0.292583
 Thermal correction to Enthalpy=                  0.293527
 Thermal correction to Gibbs Free Energy=         0.242506
 Sum of electronic and zero-point Energies=           -617.209873
 Sum of electronic and thermal Energies=              -617.198137
 Sum of electronic and thermal Enthalpies=            -617.197193
 Sum of electronic and thermal Free Energies=         -617.248215

                     E (Thermal)             CV                S
                      KCal/Mol        Cal/Mol-Kelvin    Cal/Mol-Kelvin
 Total                  183.599             46.645            107.384
 Electronic               0.000              0.000              0.000
 Translational            0.889              2.981             41.570
 Rotational               0.889              2.981             31.060
 Vibrational            181.821             40.684             34.754
 Vibration     1          0.594              1.982              5.396
 Vibration     2          0.596              1.976              4.682
 Vibration     3          0.605              1.946              3.382
 Vibration     4          0.616              1.908              2.740
 Vibration     5          0.627              1.873              2.379
 Vibration     6          0.641              1.829              2.062
 Vibration     7          0.656              1.783              1.822
 Vibration     8          0.694              1.670              1.407
 Vibration     9          0.701              1.648              1.344
 Vibration    10          0.729              1.570              1.154
 Vibration    11          0.766              1.471              0.965
 Vibration    12          0.793              1.402              0.854
 Vibration    13          0.814              1.348              0.779
 Vibration    14          0.824              1.323              0.746
 Vibration    15          0.888              1.177              0.581
 Vibration    16          0.922              1.104              0.511
 Vibration    17          0.971              1.007              0.430

 Optimization completed.
    -- Stationary point found.
 Normal termination of Gaussian 16 at Sun Nov  4 23:03:33 2018.
