 Gaussian 16, Revision A.03,
 Gaussian 16:  ES64L-G16RevA.03 25-Dec-2016

 ----------------------------------------------------------------------
 #M062X/6-311++G(2d,2p) opt=ModRedundant freq=noraman SCRF=(Solvent=Wat
 er)
 ----------------------------------------------------------------------

 -----------------------------
 D_a1-4_2SO_PSI.inp_extract_24
 -----------------------------
 Symbolic Z-matrix:
 Charge =  0 Multiplicity = 1

 SCF Done:  E(RM062X) =  -617.494933471     A.U. after   12 cycles
 SCF Done:  E(RM062X) =  -617.496615173     A.U. after   10 cycles
 SCF Done:  E(RM062X) =  -617.496760901     A.U. after   10 cycles
 SCF Done:  E(RM062X) =  -617.496797917     A.U. after   10 cycles
 SCF Done:  E(RM062X) =  -617.496806548     A.U. after    8 cycles
 SCF Done:  E(RM062X) =  -617.496807177     A.U. after    8 cycles
 SCF Done:  E(RM062X) =  -617.496807506     A.U. after    7 cycles
 SCF Done:  E(RM062X) =  -617.496807561     A.U. after    7 cycles
 Optimization completed.
    -- Stationary point found.
 Normal termination of Gaussian 16 at Sun Nov  4 21:57:39 2018.

 ----------------------------------------------------------------------
 #N Geom=AllCheck Guess=TCheck SCRF=Check GenChk RM062X/6-311++G(2d,2p)
  Freq
 ----------------------------------------------------------------------

 Structure from the checkpoint file:  "D_a1-4_2SO_PSI.inp_extract_24.chk"
 -----------------------------
 D_a1-4_2SO_PSI.inp_extract_24
 -----------------------------
 Charge =  0 Multiplicity = 1

                         Standard orientation:
 ---------------------------------------------------------------------
 Center     Atomic      Atomic             Coordinates (Angstroms)
 Number     Number       Type             X           Y           Z
 ---------------------------------------------------------------------
      1          6           0        0.947803    0.062930   -0.424915
      2          6           0        3.760608   -0.375112    0.374936
      3          8           0       -1.753448    0.554242   -1.234980
      4          6           0        1.666306   -1.267505   -0.199257
      5          6           0        1.905073    1.218531   -0.110674
      6          8           0       -0.193140    0.095088    0.430642
      7          6           0       -2.272064    0.998831    1.093574
      8          6           0       -2.987648   -0.347283    1.200490
      9          6           0       -1.213583    0.962362    0.003698
     10          6           0       -3.510625   -0.757040   -0.175493
     11          6           0       -2.377591   -0.729643   -1.187592
     12          6           0        3.324946    0.810414   -0.496065
     13          8           0        2.646694   -1.151363    0.814234
     14          1           0        0.612271    0.107869   -1.463425
     15          1           0        4.459903   -1.019363   -0.166273
     16          1           0        4.246401   -0.022977    1.283452
     17          1           0        0.948574   -2.017641    0.126610
     18          1           0        2.129626   -1.611119   -1.129475
     19          1           0        1.857396    1.411601    0.962519
     20          1           0        1.603518    2.128262   -0.627151
     21          1           0       -1.799318    1.279148    2.034042
     22          1           0       -2.988690    1.779275    0.831852
     23          1           0       -2.290514   -1.104085    1.565064
     24          1           0       -3.802553   -0.282245    1.920647
     25          1           0       -0.807335    1.958109   -0.189264
     26          1           0       -3.947706   -1.755694   -0.149994
     27          1           0       -4.289787   -0.061546   -0.496806
     28          1           0       -2.736375   -0.917846   -2.196965
     29          1           0       -1.628906   -1.487910   -0.939525
     30          1           0        3.349665    0.539068   -1.553028
     31          1           0        4.023632    1.634445   -0.363667
 ---------------------------------------------------------------------

 SCF Done:  E(RM062X) =  -617.496807561     A.U. after    1 cycles

 The electronic state is 1-A.
 Alpha  occ. eigenvalues --  -19.62986 -19.62958 -19.62772 -10.63407 -10.58588
 Alpha  occ. eigenvalues --  -10.58027 -10.58018 -10.57769 -10.53385 -10.53194
 Alpha  occ. eigenvalues --  -10.53044 -10.52972 -10.52862  -1.20046  -1.16363
 Alpha  occ. eigenvalues --   -1.13194  -0.90836  -0.89555  -0.87204  -0.84247
 Alpha  occ. eigenvalues --   -0.74910  -0.74263  -0.72822  -0.71022  -0.64797
 Alpha  occ. eigenvalues --   -0.62591  -0.59889  -0.59364  -0.58036  -0.55761
 Alpha  occ. eigenvalues --   -0.54442  -0.53526  -0.52633  -0.50050  -0.49385
 Alpha  occ. eigenvalues --   -0.47214  -0.46424  -0.45953  -0.45327  -0.44980
 Alpha  occ. eigenvalues --   -0.43293  -0.42790  -0.42138  -0.41004  -0.39462
 Alpha  occ. eigenvalues --   -0.38416  -0.37250  -0.36127  -0.34594  -0.33300
 Alpha  occ. eigenvalues --   -0.32103
 Alpha virt. eigenvalues --   -0.00107   0.00770   0.00928   0.01040   0.02221
 Alpha virt. eigenvalues --    0.02425   0.02613   0.03351   0.03734   0.04436
 Alpha virt. eigenvalues --    0.04472   0.04606   0.05337   0.06066   0.07091

 Mulliken charges:
               1
     1  C   -0.173071
     2  C   -0.256663
     3  O   -0.291946
     4  C   -0.369230
     5  C   -0.177062
     6  O   -0.240248
     7  C   -0.368171
     8  C   -0.304169
     9  C   -0.028581
    10  C   -0.371000
    11  C   -0.127571
    12  C   -0.334123
    13  O   -0.323630
    14  H    0.263791
    15  H    0.172259
    16  H    0.173741
    17  H    0.214348
    18  H    0.179704
    19  H    0.212569
    20  H    0.154337
    21  H    0.176652
    22  H    0.187137
    23  H    0.176533
    24  H    0.180748
    25  H    0.258528
    26  H    0.170057
    27  H    0.165570
    28  H    0.203587
    29  H    0.117283
    30  H    0.185866
    31  H    0.172757
 Sum of Mulliken charges =  -0.00000

 Dipole moment (field-independent basis, Debye):
    X=              0.0380    Y=              0.7860    Z=             -1.4675  Tot=              1.6651
 Quadrupole moment (field-independent basis, Debye-Ang):
   XX=            -71.0097   YY=            -78.8403   ZZ=            -83.5954
   XY=              6.2091   XZ=             -6.4132   YZ=              5.4208

  Exact polarizability: 175.136   2.790 155.969  -0.156   2.997 151.625
 Approx polarizability: 146.522   1.156 141.824   0.940   0.501 141.763

 ******    1 imaginary frequencies (negative Signs) ******

                      1                      2                      3
                      A                      A                      A
 Frequencies --     -5.7201                44.3302                63.3366
 Red. masses --      3.5214                 3.2079                 3.7611
 Frc consts  --      0.0001                 0.0037                 0.0089
 IR Inten    --      1.6353                 2.3042                 1.5595

                      4                      5                      6
                      A                      A                      A
 Frequencies --    134.6562               157.8489               208.4288
 Red. masses --      3.0770                 3.7101                 2.0877
 Frc consts  --      0.0329                 0.0545                 0.0534
 IR Inten    --      3.6675                 1.7352                 3.9649

                      7                      8                      9
                      A                      A                      A
 Frequencies --    246.0507               272.7214               303.0274
 Red. masses --      3.3170                 2.3282                 2.3633
 Frc consts  --      0.1183                 0.1020                 0.1279
 IR Inten    --      7.0221                 6.3769                 2.6730

                     10                     11                     12
                      A                      A                      A
 Frequencies --    364.9490               412.9675               420.6880
 Red. masses --      1.9156                 2.8318                 2.5349
 Frc consts  --      0.1503                 0.2845                 0.2643
 IR Inten    --      6.0936                10.7410                 9.1080

                     13                     14                     15
                      A                      A                      A
 Frequencies --    441.3341               467.7052               537.1596
 Red. masses --      3.0178                 3.9121                 2.5063
 Frc consts  --      0.3463                 0.5042                 0.4261
 IR Inten    --      6.2605                 3.3934                 3.6115

                     16                     17                     18
                      A                      A                      A
 Frequencies --    555.4308               596.2933               666.5782
 Red. masses --      3.6014                 2.7922                 2.3114
 Frc consts  --      0.6546                 0.5849                 0.6051
 IR Inten    --      9.7421                 6.0738                11.9948

                     19                     20                     21
                      A                      A                      A
 Frequencies --    716.1938               821.2174               832.7108
 Red. masses --      2.8740                 1.9912                 1.5844
 Frc consts  --      0.8686                 0.7912                 0.6473
 IR Inten    --      1.0789                 7.7435                 0.0344

                     22                     23                     24
                      A                      A                      A
 Frequencies --    839.9347               866.5024               893.4871
 Red. masses --      3.3137                 1.8947                 2.3959
 Frc consts  --      1.3774                 0.8382                 1.1269
 IR Inten    --      9.9398                 6.1563                19.8225

                     25                     26                     27
                      A                      A                      A
 Frequencies --    906.4386               917.3479               922.3202
 Red. masses --      2.4474                 2.4773                 1.9983
 Frc consts  --      1.1847                 1.2283                 1.0016
 IR Inten    --     10.4540                 9.9427                65.6489

                     28                     29                     30
                      A                      A                      A
 Frequencies --    933.1467               949.1869               986.8840
 Red. masses --      2.1578                 1.5732                 1.8851
 Frc consts  --      1.1070                 0.8351                 1.0817
 IR Inten    --      8.7735                 5.0502                32.2493

                     31                     32                     33
                      A                      A                      A
 Frequencies --   1030.6747              1048.3545              1063.1004
 Red. masses --      2.1715                 2.5830                 1.5697
 Frc consts  --      1.3591                 1.6726                 1.0452
 IR Inten    --     21.9971               181.4487                81.7755

                     34                     35                     36
                      A                      A                      A
 Frequencies --   1067.9033              1071.9211              1087.8591
 Red. masses --      1.7856                 2.2879                 2.5303
 Frc consts  --      1.1997                 1.5489                 1.7643
 IR Inten    --     14.0260                16.3950               241.4516

                     37                     38                     39
                      A                      A                      A
 Frequencies --   1127.5917              1147.2781              1155.3858
 Red. masses --      2.1311                 4.0977                 2.4403
 Frc consts  --      1.5964                 3.1778                 1.9193
 IR Inten    --     94.9128                73.6952                15.0690

                     40                     41                     42
                      A                      A                      A
 Frequencies --   1170.8118              1177.4659              1214.4687
 Red. masses --      3.9080                 2.6117                 1.4090
 Frc consts  --      3.1563                 2.1334                 1.2244
 IR Inten    --    180.9000                20.5446                18.2980

                     43                     44                     45
                      A                      A                      A
 Frequencies --   1217.7120              1233.2829              1252.2542
 Red. masses --      1.3732                 1.6168                 1.4696
 Frc consts  --      1.1997                 1.4488                 1.3578
 IR Inten    --      4.9139                57.2435                37.9160

                     46                     47                     48
                      A                      A                      A
 Frequencies --   1287.3667              1289.0799              1320.4042
 Red. masses --      1.1891                 1.2167                 1.1506
 Frc consts  --      1.1611                 1.1912                 1.1819
 IR Inten    --     24.1498                10.3690                 9.7608

                     49                     50                     51
                      A                      A                      A
 Frequencies --   1328.4251              1341.2360              1359.8431
 Red. masses --      1.1808                 1.2699                 1.3463
 Frc consts  --      1.2277                 1.3460                 1.4668
 IR Inten    --      9.0409                 3.7888                11.2993

                     52                     53                     54
                      A                      A                      A
 Frequencies --   1372.1918              1373.8895              1382.0295
 Red. masses --      1.5320                 1.3335                 1.3135
 Frc consts  --      1.6996                 1.4831                 1.4781
 IR Inten    --     14.4817                 4.0140                27.1184

                     55                     56                     57
                      A                      A                      A
 Frequencies --   1388.3538              1392.5644              1402.3025
 Red. masses --      1.4619                 1.6946                 1.2536
 Frc consts  --      1.6603                 1.9362                 1.4524
 IR Inten    --      1.7104                14.8263                 7.0309

                     58                     59                     60
                      A                      A                      A
 Frequencies --   1406.8996              1423.4518              1429.2041
 Red. masses --      1.3795                 1.3590                 1.4812
 Frc consts  --      1.6088                 1.6224                 1.7826
 IR Inten    --      6.9997                12.0154                 5.0364

                     61                     62                     63
                      A                      A                      A
 Frequencies --   1435.3302              1475.0864              1481.8848
 Red. masses --      1.3228                 1.1054                 1.0867
 Frc consts  --      1.6057                 1.4171                 1.4060
 IR Inten    --     13.2806                 5.3805                 7.0406

                     64                     65                     66
                      A                      A                      A
 Frequencies --   1490.9876              1494.6491              1495.8043
 Red. masses --      1.0976                 1.1089                 1.0937
 Frc consts  --      1.4377                 1.4596                 1.4418
 IR Inten    --      2.0281                14.3820                11.8483

                     67                     68                     69
                      A                      A                      A
 Frequencies --   1503.2278              1507.7994              1517.8205
 Red. masses --      1.0777                 1.0943                 1.0988
 Frc consts  --      1.4348                 1.4658                 1.4915
 IR Inten    --      7.1076                 4.3657                 3.2999

                     70                     71                     72
                      A                      A                      A
 Frequencies --   3039.7211              3041.5574              3050.5570
 Red. masses --      1.0693                 1.0680                 1.0692
 Frc consts  --      5.8212                 5.8213                 5.8622
 IR Inten    --     94.6401                45.6698                56.7858

                     73                     74                     75
                      A                      A                      A
 Frequencies --   3062.9057              3069.5551              3073.7371
 Red. masses --      1.0629                 1.0774                 1.0654
 Frc consts  --      5.8751                 5.9813                 5.9308
 IR Inten    --     41.4886                20.9022                41.6666

                     76                     77                     78
                      A                      A                      A
 Frequencies --   3074.3625              3078.4702              3081.0697
 Red. masses --      1.0675                 1.0763                 1.0654
 Frc consts  --      5.9449                 6.0096                 5.9589
 IR Inten    --      8.2906                10.2600                75.5172

                     79                     80                     81
                      A                      A                      A
 Frequencies --   3082.8907              3112.9606              3115.6905
 Red. masses --      1.0712                 1.0982                 1.0957
 Frc consts  --      5.9982                 6.2701                 6.2671
 IR Inten    --     70.5904                40.2096                17.2706

                     82                     83                     84
                      A                      A                      A
 Frequencies --   3119.5816              3130.2606              3130.5076
 Red. masses --      1.1022                 1.1029                 1.1031
 Frc consts  --      6.3199                 6.3673                 6.3692
 IR Inten    --     61.1179                13.9512                64.4786

                     85                     86                     87
                      A                      A                      A
 Frequencies --   3133.7005              3135.3553              3137.3045
 Red. masses --      1.0996                 1.0976                 1.0976
 Frc consts  --      6.3620                 6.3573                 6.3649
 IR Inten    --     72.4882                47.3560                17.9656

 - Thermochemistry -
 -------------------
 Temperature   298.150 Kelvin.  Pressure   1.00000 Atm.
 Atom     1 has atomic number  6 and mass  12.00000

 Molecular mass:   186.12559 amu.
 Principal axes and moments of inertia in atomic units:
                           1         2         3
     Eigenvalues --   944.756774388.409234480.97821
           X            0.99987   0.01336  -0.00852
           Y           -0.01137   0.97942   0.20152
           Z            0.01104  -0.20139   0.97945
 This molecule is an asymmetric top.
 Rotational symmetry number  1.
 Warning -- assumption of classical behavior for rotation
           may cause significant error
 Rotational temperatures (Kelvin)      0.09168     0.01974     0.01933
 Rotational constants (GHZ):           1.91027     0.41125     0.40276
    1 imaginary frequencies ignored.
 Zero-point vibrational energy     736391.0 (Joules/Mol)
                                  176.00167 (Kcal/Mol)
 Warning -- explicit consideration of  16 degrees of freedom as
           vibrations may cause significant error
 Vibrational temperatures:     63.78    91.13   193.74   227.11   299.88
          (Kelvin)            354.01   392.39   435.99   525.08   594.17
                              605.28   634.98   672.92   772.85   799.14
                              857.93   959.06  1030.44  1181.55  1198.09
                             1208.48  1246.70  1285.53  1304.16  1319.86
                             1327.01  1342.59  1365.67  1419.91  1482.91
                             1508.35  1529.56  1536.47  1542.26  1565.19
                             1622.35  1650.68  1662.34  1684.54  1694.11
                             1747.35  1752.02  1774.42  1801.71  1852.23
                             1854.70  1899.77  1911.31  1929.74  1956.51
                             1974.28  1976.72  1988.43  1997.53  2003.59
                             2017.60  2024.21  2048.03  2056.31  2065.12
                             2122.32  2132.10  2145.20  2150.47  2152.13
                             2162.81  2169.39  2183.81  4373.48  4376.12
                             4389.07  4406.84  4416.41  4422.42  4423.32
                             4429.23  4432.97  4435.59  4478.86  4482.78
                             4488.38  4503.75  4504.10  4508.70  4511.08
                             4513.88

 Zero-point correction=                           0.280477 (Hartree/Particle)
 Thermal correction to Energy=                    0.291527
 Thermal correction to Enthalpy=                  0.292472
 Thermal correction to Gibbs Free Energy=         0.243041
 Sum of electronic and zero-point Energies=           -617.216331
 Sum of electronic and thermal Energies=              -617.205280
 Sum of electronic and thermal Enthalpies=            -617.204336
 Sum of electronic and thermal Free Energies=         -617.253766

                     E (Thermal)             CV                S
                      KCal/Mol        Cal/Mol-Kelvin    Cal/Mol-Kelvin
 Total                  182.936             44.753            104.035
 Electronic               0.000              0.000              0.000
 Translational            0.889              2.981             41.570
 Rotational               0.889              2.981             31.297
 Vibrational            181.159             38.792             31.168
 Vibration     1          0.595              1.980              5.056
 Vibration     2          0.597              1.972              4.350
 Vibration     3          0.613              1.919              2.878
 Vibration     4          0.621              1.894              2.575
 Vibration     5          0.642              1.828              2.057
 Vibration     6          0.661              1.769              1.759
 Vibration     7          0.676              1.724              1.579
 Vibration     8          0.694              1.668              1.400
 Vibration     9          0.738              1.544              1.101
 Vibration    10          0.777              1.442              0.916
 Vibration    11          0.783              1.425              0.890
 Vibration    12          0.801              1.380              0.822
 Vibration    13          0.825              1.322              0.744
 Vibration    14          0.892              1.168              0.571
 Vibration    15          0.911              1.128              0.533
 Vibration    16          0.954              1.040              0.456

                           ! Non-Optimized Parameters !
 Normal termination of Gaussian 16 at Sun Nov  4 22:51:00 2018.
