 Gaussian 16, Revision A.03,
 Gaussian 16:  ES64L-G16RevA.03 25-Dec-2016

 ----------------------------------------------------------------------
 #M062X/6-311++G(2d,2p) opt=ModRedundant freq=noraman SCRF=(Solvent=Wat
 er)
 ----------------------------------------------------------------------

 ----------------------------
 D_a1-4_2SO_PSI.inp_extract_3
 ----------------------------
 Symbolic Z-matrix:
 Charge =  0 Multiplicity = 1

 SCF Done:  E(RM062X) =  -617.494042000     A.U. after   12 cycles
 SCF Done:  E(RM062X) =  -617.495572816     A.U. after   11 cycles
 SCF Done:  E(RM062X) =  -617.495678518     A.U. after   10 cycles
 SCF Done:  E(RM062X) =  -617.495731214     A.U. after    9 cycles
 SCF Done:  E(RM062X) =  -617.495735500     A.U. after    8 cycles
 SCF Done:  E(RM062X) =  -617.495736104     A.U. after    8 cycles
 SCF Done:  E(RM062X) =  -617.495736390     A.U. after    7 cycles
 SCF Done:  E(RM062X) =  -617.495736450     A.U. after    7 cycles
 Optimization completed.
    -- Stationary point found.
 Normal termination of Gaussian 16 at Sun Nov  4 21:57:43 2018.

 ----------------------------------------------------------------------
 #N Geom=AllCheck Guess=TCheck SCRF=Check GenChk RM062X/6-311++G(2d,2p)
  Freq
 ----------------------------------------------------------------------

 Structure from the checkpoint file:  "D_a1-4_2SO_PSI.inp_extract_3.chk"
 ----------------------------
 D_a1-4_2SO_PSI.inp_extract_3
 ----------------------------
 Charge =  0 Multiplicity = 1

                         Standard orientation:
 ---------------------------------------------------------------------
 Center     Atomic      Atomic             Coordinates (Angstroms)
 Number     Number       Type             X           Y           Z
 ---------------------------------------------------------------------
      1          6           0        1.038333    0.360199   -0.499038
      2          6           0        3.628313   -0.605345    0.544831
      3          8           0       -1.695413   -0.357070   -1.278130
      4          6           0        1.509998   -1.088875   -0.347181
      5          6           0        2.107470    1.304268    0.048631
      6          8           0       -0.179362    0.599102    0.206338
      7          6           0       -2.411157    1.409331    0.238020
      8          6           0       -3.000827    0.367902    1.186215
      9          6           0       -1.296241    0.823501   -0.612874
     10          6           0       -3.411182   -0.863891    0.382668
     11          6           0       -2.218254   -1.365549   -0.411673
     12          6           0        3.487743    0.714939   -0.225608
     13          8           0        2.364836   -1.228937    0.772438
     14          1           0        0.872581    0.554433   -1.562094
     15          1           0        4.283183   -1.299784    0.010318
     16          1           0        4.046624   -0.426862    1.534029
     17          1           0        0.658578   -1.745522   -0.190290
     18          1           0        2.030053   -1.411218   -1.255617
     19          1           0        1.955608    1.392840    1.125811
     20          1           0        1.993244    2.295992   -0.385467
     21          1           0       -2.020486    2.271717    0.776273
     22          1           0       -3.187911    1.763593   -0.442282
     23          1           0       -2.255620    0.083951    1.932337
     24          1           0       -3.852317    0.787654    1.720568
     25          1           0       -1.023847    1.509574   -1.418237
     26          1           0       -3.768784   -1.661502    1.034389
     27          1           0       -4.220464   -0.607336   -0.305173
     28          1           0       -2.483960   -2.197578   -1.059830
     29          1           0       -1.436396   -1.699087    0.276063
     30          1           0        3.605528    0.547249   -1.297760
     31          1           0        4.278709    1.398246    0.077856
 ---------------------------------------------------------------------

 SCF Done:  E(RM062X) =  -617.495736450     A.U. after    1 cycles

 The electronic state is 1-A.
 Alpha  occ. eigenvalues --  -19.63105 -19.63042 -19.62768 -10.63535 -10.58821
 Alpha  occ. eigenvalues --  -10.58041 -10.57930 -10.57847 -10.53349 -10.53189
 Alpha  occ. eigenvalues --  -10.53112 -10.53044 -10.52904  -1.20002  -1.16317
 Alpha  occ. eigenvalues --   -1.13315  -0.90964  -0.89779  -0.87058  -0.84315
 Alpha  occ. eigenvalues --   -0.74870  -0.74316  -0.72971  -0.71318  -0.64645
 Alpha  occ. eigenvalues --   -0.62937  -0.59833  -0.59707  -0.57335  -0.56571
 Alpha  occ. eigenvalues --   -0.54767  -0.52832  -0.52573  -0.50333  -0.49638
 Alpha  occ. eigenvalues --   -0.47430  -0.46609  -0.45864  -0.45187  -0.44510
 Alpha  occ. eigenvalues --   -0.44045  -0.42481  -0.42175  -0.40682  -0.39418
 Alpha  occ. eigenvalues --   -0.38462  -0.37127  -0.36137  -0.35621  -0.33490
 Alpha  occ. eigenvalues --   -0.31742
 Alpha virt. eigenvalues --   -0.00120   0.00746   0.00882   0.01077   0.02183
 Alpha virt. eigenvalues --    0.02448   0.02567   0.03435   0.03600   0.04459
 Alpha virt. eigenvalues --    0.04504   0.04718   0.05536   0.05679   0.07146

 Mulliken charges:
               1
     1  C    0.109800
     2  C   -0.222314
     3  O   -0.301391
     4  C   -0.440385
     5  C   -0.216195
     6  O   -0.247306
     7  C   -0.413736
     8  C   -0.285910
     9  C   -0.103971
    10  C   -0.384855
    11  C   -0.106306
    12  C   -0.350806
    13  O   -0.318717
    14  H    0.208875
    15  H    0.170220
    16  H    0.172923
    17  H    0.215638
    18  H    0.173013
    19  H    0.189546
    20  H    0.167929
    21  H    0.180699
    22  H    0.190710
    23  H    0.176987
    24  H    0.184418
    25  H    0.227495
    26  H    0.172153
    27  H    0.164214
    28  H    0.213532
    29  H    0.120291
    30  H    0.179697
    31  H    0.173751
 Sum of Mulliken charges =  -0.00000

 Dipole moment (field-independent basis, Debye):
    X=              0.2963    Y=              1.3963    Z=             -1.1351  Tot=              1.8237
 Quadrupole moment (field-independent basis, Debye-Ang):
   XX=            -68.5513   YY=            -78.5095   ZZ=            -83.9193
   XY=              3.7656   XZ=             -5.7836   YZ=              0.5618

  Exact polarizability: 175.209   1.561 158.851  -0.248   0.476 149.692
 Approx polarizability: 146.805   1.280 141.275   0.907  -0.495 142.361

 ******    1 imaginary frequencies (negative Signs) ******

                      1                      2                      3
                      A                      A                      A
 Frequencies --    -31.1758                57.5378                74.0747
 Red. masses --      3.7679                 3.2230                 4.0272
 Frc consts  --      0.0022                 0.0063                 0.0130
 IR Inten    --      0.6203                 1.4435                 4.8023

                      4                      5                      6
                      A                      A                      A
 Frequencies --    121.4769               177.1182               213.1257
 Red. masses --      3.0735                 2.8415                 2.0450
 Frc consts  --      0.0267                 0.0525                 0.0547
 IR Inten    --      1.6399                 3.6339                 4.3382

                      7                      8                      9
                      A                      A                      A
 Frequencies --    246.3797               282.3426               286.6654
 Red. masses --      4.2439                 2.5175                 2.5152
 Frc consts  --      0.1518                 0.1182                 0.1218
 IR Inten    --      2.3784                 2.9781                 6.6745

                     10                     11                     12
                      A                      A                      A
 Frequencies --    358.9952               383.1670               436.2760
 Red. masses --      1.8249                 2.8439                 2.3183
 Frc consts  --      0.1386                 0.2460                 0.2600
 IR Inten    --      3.9649                14.6716                 3.0772

                     13                     14                     15
                      A                      A                      A
 Frequencies --    441.6752               460.5640               534.4234
 Red. masses --      3.5405                 3.4387                 2.3376
 Frc consts  --      0.4069                 0.4298                 0.3934
 IR Inten    --      8.2035                 0.6491                 2.4096

                     16                     17                     18
                      A                      A                      A
 Frequencies --    564.1621               599.3561               663.5160
 Red. masses --      3.2052                 3.2571                 2.2723
 Frc consts  --      0.6011                 0.6894                 0.5894
 IR Inten    --     10.5628                 7.4941                15.0425

                     19                     20                     21
                      A                      A                      A
 Frequencies --    709.4771               824.6209               832.7994
 Red. masses --      3.0161                 2.0499                 1.6122
 Frc consts  --      0.8945                 0.8213                 0.6588
 IR Inten    --      2.6670                12.5226                 1.0669

                     22                     23                     24
                      A                      A                      A
 Frequencies --    840.9613               865.7737               894.1145
 Red. masses --      2.8432                 2.0217                 2.4098
 Frc consts  --      1.1847                 0.8929                 1.1350
 IR Inten    --      8.8240                 5.3381                25.1473

                     25                     26                     27
                      A                      A                      A
 Frequencies --    905.7356               913.9637               919.4210
 Red. masses --      2.3658                 2.4649                 2.1940
 Frc consts  --      1.1435                 1.2131                 1.0928
 IR Inten    --     11.1389                20.0221                48.8378

                     28                     29                     30
                      A                      A                      A
 Frequencies --    940.6892               950.2706               991.7121
 Red. masses --      1.8221                 1.6969                 1.8353
 Frc consts  --      0.9500                 0.9028                 1.0635
 IR Inten    --     15.2533                 4.2939                18.1748

                     31                     32                     33
                      A                      A                      A
 Frequencies --   1030.0905              1053.6230              1060.4057
 Red. masses --      2.2363                 2.6407                 1.6716
 Frc consts  --      1.3981                 1.7272                 1.1075
 IR Inten    --     46.7796               157.6307               100.7464

                     34                     35                     36
                      A                      A                      A
 Frequencies --   1064.9649              1075.2497              1088.9233
 Red. masses --      1.6860                 2.1442                 2.2577
 Frc consts  --      1.1266                 1.4606                 1.5773
 IR Inten    --     27.0038                51.4367               168.4593

                     37                     38                     39
                      A                      A                      A
 Frequencies --   1128.1701              1146.7432              1150.7032
 Red. masses --      2.1687                 4.4202                 2.2377
 Frc consts  --      1.6263                 3.4247                 1.7458
 IR Inten    --    147.2479                71.8870                26.9856

                     40                     41                     42
                      A                      A                      A
 Frequencies --   1177.0755              1182.2318              1213.8538
 Red. masses --      3.8160                 2.9169                 1.4248
 Frc consts  --      3.1150                 2.4021                 1.2369
 IR Inten    --    140.4737                46.4822                13.0594

                     43                     44                     45
                      A                      A                      A
 Frequencies --   1218.8812              1235.1673              1252.2447
 Red. masses --      1.4263                 1.6174                 1.4683
 Frc consts  --      1.2485                 1.4539                 1.3566
 IR Inten    --      5.3786                56.6824                52.9672

                     46                     47                     48
                      A                      A                      A
 Frequencies --   1285.4995              1291.7512              1321.7580
 Red. masses --      1.2170                 1.2286                 1.1663
 Frc consts  --      1.1849                 1.2079                 1.2005
 IR Inten    --     21.5040                20.0365                15.5134

                     49                     50                     51
                      A                      A                      A
 Frequencies --   1328.7342              1337.5547              1360.9673
 Red. masses --      1.1957                 1.3038                 1.3548
 Frc consts  --      1.2438                 1.3743                 1.4785
 IR Inten    --      8.3225                 5.2576                10.1036

                     52                     53                     54
                      A                      A                      A
 Frequencies --   1362.5017              1376.2170              1384.4827
 Red. masses --      1.5624                 1.3329                 1.2878
 Frc consts  --      1.7088                 1.4874                 1.4544
 IR Inten    --      4.9206                11.4731                18.7861

                     55                     56                     57
                      A                      A                      A
 Frequencies --   1387.8232              1395.8229              1402.4341
 Red. masses --      1.3991                 1.7306                 1.2504
 Frc consts  --      1.5877                 1.9866                 1.4490
 IR Inten    --      7.3507                24.4909                 9.0309

                     58                     59                     60
                      A                      A                      A
 Frequencies --   1406.7409              1424.3542              1433.0825
 Red. masses --      1.3776                 1.3491                 1.3712
 Frc consts  --      1.6062                 1.6126                 1.6592
 IR Inten    --     15.4279                 5.8881                19.2242

                     61                     62                     63
                      A                      A                      A
 Frequencies --   1448.8402              1476.1544              1483.0229
 Red. masses --      1.3102                 1.1071                 1.0870
 Frc consts  --      1.6204                 1.4213                 1.4086
 IR Inten    --      1.9637                 4.9534                 8.7449

                     64                     65                     66
                      A                      A                      A
 Frequencies --   1489.1530              1493.7288              1496.1664
 Red. masses --      1.1041                 1.0945                 1.1054
 Frc consts  --      1.4425                 1.4389                 1.4579
 IR Inten    --      4.0032                 5.2539                17.3122

                     67                     68                     69
                      A                      A                      A
 Frequencies --   1502.7458              1508.3497              1517.0533
 Red. masses --      1.0797                 1.0943                 1.0986
 Frc consts  --      1.4366                 1.4668                 1.4896
 IR Inten    --      9.1316                 3.3541                 4.1808

                     70                     71                     72
                      A                      A                      A
 Frequencies --   3035.2857              3041.4664              3057.3434
 Red. masses --      1.0719                 1.0677                 1.0686
 Frc consts  --      5.8185                 5.8195                 5.8852
 IR Inten    --     50.1406                83.8842                48.4479

                     73                     74                     75
                      A                      A                      A
 Frequencies --   3061.3462              3064.7683              3068.5076
 Red. masses --      1.0839                 1.0634                 1.0759
 Frc consts  --      5.9850                 5.8848                 5.9685
 IR Inten    --     16.8410                42.9467                68.9175

                     76                     77                     78
                      A                      A                      A
 Frequencies --   3070.9889              3074.1881              3081.5369
 Red. masses --      1.0668                 1.0686                 1.0678
 Frc consts  --      5.9280                 5.9500                 5.9744
 IR Inten    --     15.8934                18.1539                69.3961

                     79                     80                     81
                      A                      A                      A
 Frequencies --   3082.2485              3114.4919              3115.3308
 Red. masses --      1.0612                 1.0978                 1.0959
 Frc consts  --      5.9398                 6.2742                 6.2668
 IR Inten    --     59.7174                37.6390                17.4920

                     82                     83                     84
                      A                      A                      A
 Frequencies --   3119.4338              3131.6596              3133.1680
 Red. masses --      1.1020                 1.1023                 1.1011
 Frc consts  --      6.3183                 6.3694                 6.3686
 IR Inten    --     65.9943                39.2402                37.9037

                     85                     86                     87
                      A                      A                      A
 Frequencies --   3134.1663              3135.5558              3157.9216
 Red. masses --      1.1017                 1.0990                 1.0933
 Frc consts  --      6.3759                 6.3664                 6.4236
 IR Inten    --     74.1925                37.6061                18.7627

 - Thermochemistry -
 -------------------
 Temperature   298.150 Kelvin.  Pressure   1.00000 Atm.
 Atom     1 has atomic number  6 and mass  12.00000

 Molecular mass:   186.12559 amu.
 Principal axes and moments of inertia in atomic units:
                           1         2         3
     Eigenvalues --   981.450804208.130884530.60557
           X            0.99992   0.00693  -0.01064
           Y           -0.00678   0.99988   0.01401
           Z            0.01074  -0.01393   0.99985
 This molecule is an asymmetric top.
 Rotational symmetry number  1.
 Warning -- assumption of classical behavior for rotation
           may cause significant error
 Rotational temperatures (Kelvin)      0.08825     0.02058     0.01912
 Rotational constants (GHZ):           1.83885     0.42887     0.39834
    1 imaginary frequencies ignored.
 Zero-point vibrational energy     736678.8 (Joules/Mol)
                                  176.07045 (Kcal/Mol)
 Warning -- explicit consideration of  16 degrees of freedom as
           vibrations may cause significant error
 Vibrational temperatures:     82.78   106.58   174.78   254.83   306.64
          (Kelvin)            354.49   406.23   412.45   516.51   551.29
                              627.70   635.47   662.65   768.92   811.70
                              862.34   954.65  1020.78  1186.45  1198.21
                             1209.96  1245.66  1286.43  1303.15  1314.99
                             1322.84  1353.44  1367.23  1426.85  1482.07
                             1515.93  1525.69  1532.25  1547.04  1566.72
                             1623.19  1649.91  1655.61  1693.55  1700.97
                             1746.46  1753.70  1777.13  1801.70  1849.55
                             1858.54  1901.71  1911.75  1924.44  1958.13
                             1960.34  1980.07  1991.96  1996.77  2008.28
                             2017.79  2023.99  2049.33  2061.89  2084.56
                             2123.86  2133.74  2142.56  2149.14  2152.65
                             2162.12  2170.18  2182.70  4367.10  4375.99
                             4398.84  4404.59  4409.52  4414.90  4418.47
                             4423.07  4433.64  4434.67  4481.06  4482.27
                             4488.17  4505.76  4507.93  4509.37  4511.37
                             4543.54

 Zero-point correction=                           0.280586 (Hartree/Particle)
 Thermal correction to Energy=                    0.291602
 Thermal correction to Enthalpy=                  0.292546
 Thermal correction to Gibbs Free Energy=         0.243474
 Sum of electronic and zero-point Energies=           -617.215150
 Sum of electronic and thermal Energies=              -617.204135
 Sum of electronic and thermal Enthalpies=            -617.203190
 Sum of electronic and thermal Free Energies=         -617.252262

                     E (Thermal)             CV                S
                      KCal/Mol        Cal/Mol-Kelvin    Cal/Mol-Kelvin
 Total                  182.983             44.767            103.280
 Electronic               0.000              0.000              0.000
 Translational            0.889              2.981             41.570
 Rotational               0.889              2.981             31.304
 Vibrational            181.205             38.805             30.407
 Vibration     1          0.596              1.974              4.540
 Vibration     2          0.599              1.966              4.042
 Vibration     3          0.609              1.931              3.077
 Vibration     4          0.628              1.871              2.359
 Vibration     5          0.644              1.821              2.017
 Vibration     6          0.661              1.769              1.756
 Vibration     7          0.681              1.706              1.519
 Vibration     8          0.684              1.698              1.494
 Vibration     9          0.734              1.557              1.126
 Vibration    10          0.752              1.506              1.027
 Vibration    11          0.797              1.391              0.838
 Vibration    12          0.801              1.379              0.821
 Vibration    13          0.818              1.338              0.764
 Vibration    14          0.889              1.174              0.577
 Vibration    15          0.920              1.109              0.516
 Vibration    16          0.957              1.033              0.451

 Optimization completed.
    -- Stationary point found.
 Normal termination of Gaussian 16 at Sun Nov  4 22:57:39 2018.
