 Gaussian 16, Revision A.03,
 Gaussian 16:  ES64L-G16RevA.03 25-Dec-2016

 ----------------------------------------------------------------------
 #M062X/6-311++G(2d,2p) opt=ModRedundant freq=noraman SCRF=(Solvent=Wat
 er)
 ----------------------------------------------------------------------

 -----------------------------
 D_a1-4_2SO_PSI.inp_extract_19
 -----------------------------
 Symbolic Z-matrix:
 Charge =  0 Multiplicity = 1

 SCF Done:  E(RM062X) =  -617.488236245     A.U. after   12 cycles
 SCF Done:  E(RM062X) =  -617.489823290     A.U. after   10 cycles
 SCF Done:  E(RM062X) =  -617.490045476     A.U. after   11 cycles
 SCF Done:  E(RM062X) =  -617.490293296     A.U. after   10 cycles
 SCF Done:  E(RM062X) =  -617.490311002     A.U. after   10 cycles
 SCF Done:  E(RM062X) =  -617.490312873     A.U. after    8 cycles
 SCF Done:  E(RM062X) =  -617.490313100     A.U. after    7 cycles
 SCF Done:  E(RM062X) =  -617.490313142     A.U. after    6 cycles
 Optimization completed.
    -- Stationary point found.
 Normal termination of Gaussian 16 at Sun Nov  4 21:58:39 2018.

 ----------------------------------------------------------------------
 #N Geom=AllCheck Guess=TCheck SCRF=Check GenChk RM062X/6-311++G(2d,2p)
  Freq
 ----------------------------------------------------------------------

 Structure from the checkpoint file:  "D_a1-4_2SO_PSI.inp_extract_19.chk"
 -----------------------------
 D_a1-4_2SO_PSI.inp_extract_19
 -----------------------------
 Charge =  0 Multiplicity = 1

                         Standard orientation:
 ---------------------------------------------------------------------
 Center     Atomic      Atomic             Coordinates (Angstroms)
 Number     Number       Type             X           Y           Z
 ---------------------------------------------------------------------
      1          6           0       -0.956293    0.028387    0.686268
      2          6           0       -3.709106   -0.056148   -0.374162
      3          8           0        1.480225    1.133957   -0.597099
      4          6           0       -2.025540   -1.047121    0.916365
      5          6           0       -1.487241    1.068923   -0.304344
      6          8           0        0.270909   -0.626195    0.336246
      7          6           0        2.179978   -1.166003   -0.924972
      8          6           0        3.164085   -1.043650    0.237211
      9          6           0        1.021506   -0.191701   -0.764639
     10          6           0        3.583786    0.416555    0.398284
     11          6           0        2.350521    1.295396    0.523131
     12          6           0       -2.979566    1.249248   -0.032146
     13          8           0       -2.857808   -1.190833   -0.218750
     14          1           0       -0.770533    0.530697    1.640841
     15          1           0       -4.598320   -0.182003    0.250577
     16          1           0       -4.015027   -0.060293   -1.419072
     17          1           0       -1.543451   -2.005866    1.092036
     18          1           0       -2.632762   -0.797463    1.792450
     19          1           0       -1.370244    0.715327   -1.328482
     20          1           0       -0.940033    2.002101   -0.210208
     21          1           0        1.781982   -2.176299   -1.010585
     22          1           0        2.683220   -0.922874   -1.862585
     23          1           0        2.687996   -1.388528    1.156912
     24          1           0        4.031831   -1.678875    0.062142
     25          1           0        0.417194   -0.163275   -1.669876
     26          1           0        4.214298    0.551086    1.277751
     27          1           0        4.158960    0.734823   -0.474670
     28          1           0        2.610842    2.351365    0.542654
     29          1           0        1.807009    1.056305    1.442146
     30          1           0       -3.131771    1.512634    1.016279
     31          1           0       -3.390575    2.062392   -0.627465
 ---------------------------------------------------------------------

 SCF Done:  E(RM062X) =  -617.490313142     A.U. after    1 cycles

 The electronic state is 1-A.
 Alpha  occ. eigenvalues --  -19.62861 -19.62822 -19.62705 -10.63332 -10.58982
 Alpha  occ. eigenvalues --  -10.58049 -10.57903 -10.57685 -10.53424 -10.53335
 Alpha  occ. eigenvalues --  -10.52957 -10.52889 -10.52793  -1.19671  -1.16392
 Alpha  occ. eigenvalues --   -1.12916  -0.90911  -0.89537  -0.87246  -0.84244
 Alpha  occ. eigenvalues --   -0.75271  -0.74388  -0.72699  -0.70725  -0.64947
 Alpha  occ. eigenvalues --   -0.62075  -0.60384  -0.58805  -0.58092  -0.55553
 Alpha  occ. eigenvalues --   -0.54142  -0.53788  -0.52419  -0.50139  -0.49247
 Alpha  occ. eigenvalues --   -0.48515  -0.45885  -0.45725  -0.45087  -0.44730
 Alpha  occ. eigenvalues --   -0.43962  -0.42322  -0.41928  -0.40456  -0.39191
 Alpha  occ. eigenvalues --   -0.38413  -0.37670  -0.36058  -0.34548  -0.33433
 Alpha  occ. eigenvalues --   -0.31531
 Alpha virt. eigenvalues --   -0.00147   0.00778   0.00801   0.01153   0.02185
 Alpha virt. eigenvalues --    0.02448   0.02628   0.03358   0.03746   0.04384
 Alpha virt. eigenvalues --    0.04517   0.04822   0.05613   0.05808   0.07096

 Mulliken charges:
               1
     1  C   -0.172855
     2  C   -0.221222
     3  O   -0.256924
     4  C   -0.328998
     5  C   -0.024464
     6  O   -0.266422
     7  C   -0.621632
     8  C   -0.269111
     9  C    0.043022
    10  C   -0.449250
    11  C   -0.047779
    12  C   -0.455218
    13  O   -0.291023
    14  H    0.230666
    15  H    0.172132
    16  H    0.180393
    17  H    0.185964
    18  H    0.177651
    19  H    0.205806
    20  H    0.192190
    21  H    0.184872
    22  H    0.194429
    23  H    0.178853
    24  H    0.181171
    25  H    0.257065
    26  H    0.173195
    27  H    0.161979
    28  H    0.205796
    29  H    0.130980
    30  H    0.191182
    31  H    0.157553
 Sum of Mulliken charges =  -0.00000

 Dipole moment (field-independent basis, Debye):
    X=              0.1320    Y=              1.6402    Z=              1.3106  Tot=              2.1036
 Quadrupole moment (field-independent basis, Debye-Ang):
   XX=            -72.5774   YY=            -83.6021   ZZ=            -77.7917
   XY=             -6.9746   XZ=             -0.6446   YZ=              1.4130

  Exact polarizability: 174.819  -1.795 156.461   1.128   0.997 152.165
 Approx polarizability: 145.477  -0.943 141.739   0.398   0.295 143.561

 ******    1 imaginary frequencies (negative Signs) ******

                      1                      2                      3
                      A                      A                      A
 Frequencies --    -66.0321                58.5223                76.6095
 Red. masses --      3.7631                 3.8274                 3.3390
 Frc consts  --      0.0097                 0.0077                 0.0115
 IR Inten    --      1.5015                 2.2969                 2.0329

                      4                      5                      6
                      A                      A                      A
 Frequencies --    106.7834               189.8625               215.7492
 Red. masses --      3.4617                 3.0240                 2.8244
 Frc consts  --      0.0233                 0.0642                 0.0775
 IR Inten    --      5.5231                 7.0096                 4.1090

                      7                      8                      9
                      A                      A                      A
 Frequencies --    229.1935               262.8214               313.1500
 Red. masses --      2.6602                 2.2522                 2.3022
 Frc consts  --      0.0823                 0.0917                 0.1330
 IR Inten    --      3.3485                 0.4506                 0.4477

                     10                     11                     12
                      A                      A                      A
 Frequencies --    360.2155               380.2657               437.5791
 Red. masses --      2.4182                 2.2647                 2.4313
 Frc consts  --      0.1849                 0.1929                 0.2743
 IR Inten    --      4.3710                22.5671                 3.5140

                     13                     14                     15
                      A                      A                      A
 Frequencies --    444.9282               459.3790               534.1570
 Red. masses --      3.0529                 3.9526                 2.3191
 Frc consts  --      0.3561                 0.4914                 0.3899
 IR Inten    --      1.4479                 3.5633                 5.1431

                     16                     17                     18
                      A                      A                      A
 Frequencies --    583.8412               613.3247               659.5798
 Red. masses --      2.8224                 3.6162                 2.2974
 Frc consts  --      0.5668                 0.8015                 0.5889
 IR Inten    --      2.1019                11.0704                14.4159

                     19                     20                     21
                      A                      A                      A
 Frequencies --    697.3572               803.1201               833.9917
 Red. masses --      3.1728                 2.3589                 1.5161
 Frc consts  --      0.9091                 0.8964                 0.6213
 IR Inten    --      4.5332                 3.1337                 3.1649

                     22                     23                     24
                      A                      A                      A
 Frequencies --    840.1353               861.9977               893.2038
 Red. masses --      3.5500                 1.7541                 2.4715
 Frc consts  --      1.4763                 0.7679                 1.1618
 IR Inten    --     10.4767                 5.0901                20.7851

                     25                     26                     27
                      A                      A                      A
 Frequencies --    911.8125               916.0508               920.2070
 Red. masses --      2.4206                 2.4753                 2.3965
 Frc consts  --      1.1857                 1.2238                 1.1956
 IR Inten    --     23.0930                45.4732                20.6037

                     28                     29                     30
                      A                      A                      A
 Frequencies --    928.8099               964.3334               976.1015
 Red. masses --      1.8064                 1.5860                 1.9393
 Frc consts  --      0.9182                 0.8690                 1.0887
 IR Inten    --     21.4988                 4.4604                32.1582

                     31                     32                     33
                      A                      A                      A
 Frequencies --   1034.0873              1047.3310              1061.5910
 Red. masses --      2.0868                 2.4167                 1.7817
 Frc consts  --      1.3147                 1.5619                 1.1830
 IR Inten    --     22.3164               132.8104               111.5530

                     34                     35                     36
                      A                      A                      A
 Frequencies --   1064.2638              1071.3607              1078.2582
 Red. masses --      1.8474                 1.9530                 2.2976
 Frc consts  --      1.2329                 1.3207                 1.5739
 IR Inten    --     26.3097                14.0241               156.1804

                     37                     38                     39
                      A                      A                      A
 Frequencies --   1133.4894              1144.7755              1154.1222
 Red. masses --      2.5703                 4.4403                 2.2329
 Frc consts  --      1.9457                 3.4285                 1.7524
 IR Inten    --    104.2106               107.8543                12.4494

                     40                     41                     42
                      A                      A                      A
 Frequencies --   1167.5640              1188.2531              1211.9356
 Red. masses --      2.3423                 4.0411                 1.3940
 Frc consts  --      1.8813                 3.3618                 1.2063
 IR Inten    --     34.9368               220.7314                23.5248

                     43                     44                     45
                      A                      A                      A
 Frequencies --   1221.7146              1233.8616              1253.7032
 Red. masses --      1.4318                 1.6087                 1.4566
 Frc consts  --      1.2591                 1.4430                 1.3489
 IR Inten    --      5.6148                42.2223                39.1453

                     46                     47                     48
                      A                      A                      A
 Frequencies --   1288.2826              1288.7368              1320.4249
 Red. masses --      1.2127                 1.2015                 1.1509
 Frc consts  --      1.1858                 1.1757                 1.1823
 IR Inten    --     16.2533                14.2502                 7.8064

                     49                     50                     51
                      A                      A                      A
 Frequencies --   1328.8348              1345.7266              1361.1215
 Red. masses --      1.2011                 1.3321                 1.3565
 Frc consts  --      1.2496                 1.4213                 1.4807
 IR Inten    --     34.0127                13.5784                 5.7769

                     52                     53                     54
                      A                      A                      A
 Frequencies --   1373.0772              1375.3480              1386.3283
 Red. masses --      1.4824                 1.3623                 1.4668
 Frc consts  --      1.6467                 1.5182                 1.6610
 IR Inten    --      1.6101                 1.2624                 0.5878

                     55                     56                     57
                      A                      A                      A
 Frequencies --   1389.2491              1393.3578              1396.7110
 Red. masses --      1.2844                 1.5507                 1.3235
 Frc consts  --      1.4605                 1.7738                 1.5212
 IR Inten    --      4.5036                16.3658                14.4961

                     58                     59                     60
                      A                      A                      A
 Frequencies --   1414.0124              1420.2493              1424.7320
 Red. masses --      1.3146                 1.3533                 1.3427
 Frc consts  --      1.5487                 1.6083                 1.6059
 IR Inten    --      6.3183                13.2482                 7.5144

                     61                     62                     63
                      A                      A                      A
 Frequencies --   1432.9755              1474.7104              1481.4426
 Red. masses --      1.3648                 1.1034                 1.0869
 Frc consts  --      1.6512                 1.4139                 1.4054
 IR Inten    --     23.0002                 5.1136                 7.2368

                     64                     65                     66
                      A                      A                      A
 Frequencies --   1492.8295              1495.1005              1497.5450
 Red. masses --      1.0967                 1.1074                 1.0936
 Frc consts  --      1.4400                 1.4584                 1.4449
 IR Inten    --      2.0898                13.6797                10.8590

                     67                     68                     69
                      A                      A                      A
 Frequencies --   1505.0158              1508.6207              1518.4727
 Red. masses --      1.0764                 1.0938                 1.0986
 Frc consts  --      1.4364                 1.4667                 1.4925
 IR Inten    --      6.8812                 3.8748                 4.0542

                     70                     71                     72
                      A                      A                      A
 Frequencies --   3030.7313              3042.4934              3047.0208
 Red. masses --      1.0777                 1.0681                 1.0757
 Frc consts  --      5.8321                 5.8251                 5.8841
 IR Inten    --     19.8260                90.4026               151.4171

                     73                     74                     75
                      A                      A                      A
 Frequencies --   3050.0223              3062.8876              3073.8499
 Red. masses --      1.0699                 1.0628                 1.0626
 Frc consts  --      5.8640                 5.8744                 5.9157
 IR Inten    --     15.9658                40.0895                29.0832

                     76                     77                     78
                      A                      A                      A
 Frequencies --   3075.0798              3077.9861              3094.9834
 Red. masses --      1.0675                 1.0628                 1.0692
 Frc consts  --      5.9477                 5.9325                 6.0344
 IR Inten    --     37.8657                28.8560                24.2630

                     79                     80                     81
                      A                      A                      A
 Frequencies --   3112.4067              3116.1330              3118.4919
 Red. masses --      1.0970                 1.0916                 1.0942
 Frc consts  --      6.2613                 6.2455                 6.2697
 IR Inten    --     57.1159                27.6992                23.9151

                     82                     83                     84
                      A                      A                      A
 Frequencies --   3119.5924              3131.1604              3134.2480
 Red. masses --      1.0926                 1.1028                 1.0984
 Frc consts  --      6.2646                 6.3703                 6.3572
 IR Inten    --     64.5579                41.6027                32.7583

                     85                     86                     87
                      A                      A                      A
 Frequencies --   3134.5590              3145.1355              3160.8539
 Red. masses --      1.0985                 1.0960                 1.1017
 Frc consts  --      6.3594                 6.3875                 6.4854
 IR Inten    --     91.5917                21.3427                26.7123

 - Thermochemistry -
 -------------------
 Temperature   298.150 Kelvin.  Pressure   1.00000 Atm.
 Atom     1 has atomic number  6 and mass  12.00000

 Molecular mass:   186.12559 amu.
 Principal axes and moments of inertia in atomic units:
                           1         2         3
     Eigenvalues --   916.257484151.104864529.06533
           X            0.99991  -0.01336   0.00093
           Y            0.01334   0.99977   0.01687
           Z           -0.00116  -0.01686   0.99986
 This molecule is an asymmetric top.
 Rotational symmetry number  1.
 Warning -- assumption of classical behavior for rotation
           may cause significant error
 Rotational temperatures (Kelvin)      0.09453     0.02087     0.01912
 Rotational constants (GHZ):           1.96969     0.43476     0.39848
    1 imaginary frequencies ignored.
 Zero-point vibrational energy     736779.6 (Joules/Mol)
                                  176.09456 (Kcal/Mol)
 Warning -- explicit consideration of  16 degrees of freedom as
           vibrations may cause significant error
 Vibrational temperatures:     84.20   110.22   153.64   273.17   310.41
          (Kelvin)            329.76   378.14   450.55   518.27   547.12
                              629.58   640.15   660.94   768.53   840.02
                              882.44   948.99  1003.34  1155.51  1199.93
                             1208.77  1240.22  1285.12  1311.89  1317.99
                             1323.97  1336.35  1387.46  1404.39  1487.82
                             1506.88  1527.39  1531.24  1541.45  1551.37
                             1630.84  1647.08  1660.52  1679.86  1709.63
                             1743.70  1757.77  1775.25  1803.80  1853.55
                             1854.20  1899.80  1911.90  1936.20  1958.35
                             1975.55  1978.82  1994.62  1998.82  2004.73
                             2009.56  2034.45  2043.42  2049.87  2061.73
                             2121.78  2131.47  2147.85  2151.12  2154.63
                             2165.38  2170.57  2184.74  4360.55  4377.47
                             4383.98  4388.30  4406.81  4422.58  4424.35
                             4428.54  4452.99  4478.06  4483.42  4486.81
                             4488.40  4505.04  4509.48  4509.93  4525.15
                             4547.76

 Zero-point correction=                           0.280625 (Hartree/Particle)
 Thermal correction to Energy=                    0.291648
 Thermal correction to Enthalpy=                  0.292592
 Thermal correction to Gibbs Free Energy=         0.243521
 Sum of electronic and zero-point Energies=           -617.209689
 Sum of electronic and thermal Energies=              -617.198665
 Sum of electronic and thermal Enthalpies=            -617.197721
 Sum of electronic and thermal Free Energies=         -617.246792

                     E (Thermal)             CV                S
                      KCal/Mol        Cal/Mol-Kelvin    Cal/Mol-Kelvin
 Total                  183.012             44.781            103.280
 Electronic               0.000              0.000              0.000
 Translational            0.889              2.981             41.570
 Rotational               0.889              2.981             31.222
 Vibrational            181.235             38.819             30.488
 Vibration     1          0.596              1.974              4.506
 Vibration     2          0.599              1.965              3.976
 Vibration     3          0.606              1.944              3.327
 Vibration     4          0.633              1.854              2.229
 Vibration     5          0.645              1.817              1.994
 Vibration     6          0.652              1.796              1.885
 Vibration     7          0.670              1.741              1.643
 Vibration     8          0.701              1.649              1.346
 Vibration     9          0.735              1.554              1.121
 Vibration    10          0.750              1.512              1.038
 Vibration    11          0.798              1.388              0.834
 Vibration    12          0.804              1.372              0.811
 Vibration    13          0.817              1.340              0.768
 Vibration    14          0.889              1.174              0.578
 Vibration    15          0.941              1.066              0.478
 Vibration    16          0.973              1.004              0.427

                           ! Non-Optimized Parameters !
 Normal termination of Gaussian 16 at Sun Nov  4 22:58:18 2018.
