 Gaussian 16, Revision A.03,
 Gaussian 16:  ES64L-G16RevA.03 25-Dec-2016

 ----------------------------------------------------------------------
 #M062X/6-311++G(2d,2p) opt=ModRedundant freq=noraman SCRF=(Solvent=Wat
 er)
 ----------------------------------------------------------------------

 ----------------------------
 D_a1-4_2SO_PSI.inp_extract_1
 ----------------------------
 Symbolic Z-matrix:
 Charge =  0 Multiplicity = 1

 SCF Done:  E(RM062X) =  -617.494363400     A.U. after   12 cycles
 SCF Done:  E(RM062X) =  -617.495992027     A.U. after   11 cycles
 SCF Done:  E(RM062X) =  -617.496111704     A.U. after   10 cycles
 SCF Done:  E(RM062X) =  -617.496122782     A.U. after    9 cycles
 SCF Done:  E(RM062X) =  -617.496124681     A.U. after    8 cycles
 SCF Done:  E(RM062X) =  -617.496125042     A.U. after    8 cycles
 SCF Done:  E(RM062X) =  -617.496125145     A.U. after    8 cycles
 SCF Done:  E(RM062X) =  -617.496125214     A.U. after    6 cycles
 Optimization completed.
    -- Stationary point found.
 Normal termination of Gaussian 16 at Sun Nov  4 21:57:37 2018.

 ----------------------------------------------------------------------
 #N Geom=AllCheck Guess=TCheck SCRF=Check GenChk RM062X/6-311++G(2d,2p)
  Freq
 ----------------------------------------------------------------------

 Structure from the checkpoint file:  "D_a1-4_2SO_PSI.inp_extract_1.chk"
 ----------------------------
 D_a1-4_2SO_PSI.inp_extract_1
 ----------------------------
 Charge =  0 Multiplicity = 1

                         Standard orientation:
 ---------------------------------------------------------------------
 Center     Atomic      Atomic             Coordinates (Angstroms)
 Number     Number       Type             X           Y           Z
 ---------------------------------------------------------------------
      1          6           0        0.975565    0.124638   -0.430077
      2          6           0        3.747154   -0.427816    0.434154
      3          8           0       -1.763338    0.113218   -1.349161
      4          6           0        1.600840   -1.228982   -0.078813
      5          6           0        1.990175    1.236268   -0.155276
      6          8           0       -0.196862    0.318925    0.360566
      7          6           0       -2.326539    1.289719    0.698444
      8          6           0       -2.984271    0.026837    1.252873
      9          6           0       -1.257092    0.938896   -0.322380
     10          6           0       -3.480448   -0.837254    0.094625
     11          6           0       -2.339993   -1.103570   -0.873292
     12          6           0        3.387056    0.731043   -0.506416
     13          8           0        2.585609   -1.092955    0.928211
     14          1           0        0.692297    0.110051   -1.484611
     15          1           0        4.392435   -1.153191   -0.070220
     16          1           0        4.266341   -0.056969    1.316208
     17          1           0        0.833979   -1.897054    0.307346
     18          1           0        2.042373   -1.685206   -0.970811
     19          1           0        1.944180    1.478241    0.907595
     20          1           0        1.735908    2.136029   -0.713696
     21          1           0       -1.875637    1.889007    1.488294
     22          1           0       -3.074285    1.904877    0.194758
     23          1           0       -2.257042   -0.535909    1.841397
     24          1           0       -3.805240    0.292513    1.917908
     25          1           0       -0.896665    1.830257   -0.842106
     26          1           0       -3.878436   -1.787128    0.452829
     27          1           0       -4.283238   -0.319445   -0.435911
     28          1           0       -2.681383   -1.631871   -1.760593
     29          1           0       -1.566529   -1.706207   -0.388784
     30          1           0        3.402366    0.399490   -1.546341
     31          1           0        4.130622    1.520340   -0.413248
 ---------------------------------------------------------------------

 SCF Done:  E(RM062X) =  -617.496125214     A.U. after    1 cycles

 The electronic state is 1-A.
 Alpha  occ. eigenvalues --  -19.62970 -19.62963 -19.62790 -10.63476 -10.58649
 Alpha  occ. eigenvalues --  -10.58038 -10.58026 -10.57778 -10.53358 -10.53145
 Alpha  occ. eigenvalues --  -10.53065 -10.52990 -10.52870  -1.20012  -1.16375
 Alpha  occ. eigenvalues --   -1.13219  -0.90868  -0.89609  -0.87134  -0.84266
 Alpha  occ. eigenvalues --   -0.74752  -0.74312  -0.72896  -0.71118  -0.64734
 Alpha  occ. eigenvalues --   -0.62772  -0.59796  -0.59535  -0.57786  -0.56001
 Alpha  occ. eigenvalues --   -0.54589  -0.53225  -0.52675  -0.50140  -0.49497
 Alpha  occ. eigenvalues --   -0.46917  -0.46651  -0.45969  -0.45210  -0.44831
 Alpha  occ. eigenvalues --   -0.43550  -0.42704  -0.42129  -0.40996  -0.39493
 Alpha  occ. eigenvalues --   -0.38397  -0.37174  -0.36125  -0.34893  -0.33351
 Alpha  occ. eigenvalues --   -0.31958
 Alpha virt. eigenvalues --   -0.00107   0.00761   0.00954   0.01001   0.02207
 Alpha virt. eigenvalues --    0.02428   0.02610   0.03330   0.03641   0.04432
 Alpha virt. eigenvalues --    0.04444   0.04641   0.05358   0.06010   0.07120

 Mulliken charges:
               1
     1  C   -0.128550
     2  C   -0.240101
     3  O   -0.275920
     4  C   -0.423915
     5  C   -0.140256
     6  O   -0.251193
     7  C   -0.379379
     8  C   -0.301941
     9  C   -0.064871
    10  C   -0.364874
    11  C   -0.106858
    12  C   -0.322937
    13  O   -0.323481
    14  H    0.256438
    15  H    0.168512
    16  H    0.174594
    17  H    0.225800
    18  H    0.174072
    19  H    0.202487
    20  H    0.150367
    21  H    0.177743
    22  H    0.185508
    23  H    0.177525
    24  H    0.183619
    25  H    0.254225
    26  H    0.170820
    27  H    0.164622
    28  H    0.206034
    29  H    0.095758
    30  H    0.181105
    31  H    0.175046
 Sum of Mulliken charges =  -0.00000

 Dipole moment (field-independent basis, Debye):
    X=              0.1104    Y=              0.8087    Z=             -1.4186  Tot=              1.6367
 Quadrupole moment (field-independent basis, Debye-Ang):
   XX=            -70.4652   YY=            -77.2292   ZZ=            -85.3624
   XY=              4.7765   XZ=             -7.1278   YZ=              3.2432

  Exact polarizability: 175.098   2.338 157.799  -0.616   1.801 149.832
 Approx polarizability: 146.738   1.268 141.784   0.880   0.061 141.659

 ******    1 imaginary frequencies (negative Signs) ******

                      1                      2                      3
                      A                      A                      A
 Frequencies --    -15.9225                47.4960                57.3030
 Red. masses --      3.5904                 3.4099                 3.5927
 Frc consts  --      0.0005                 0.0045                 0.0070
 IR Inten    --      1.6235                 2.7495                 1.5247

                      4                      5                      6
                      A                      A                      A
 Frequencies --    122.4591               164.5469               211.5524
 Red. masses --      3.1335                 3.2747                 2.0209
 Frc consts  --      0.0277                 0.0522                 0.0533
 IR Inten    --      2.8199                 2.0314                 3.4132

                      7                      8                      9
                      A                      A                      A
 Frequencies --    240.9128               282.6972               297.0478
 Red. masses --      3.6390                 2.2920                 2.4480
 Frc consts  --      0.1244                 0.1079                 0.1273
 IR Inten    --      4.7755                 7.2092                 2.8916

                     10                     11                     12
                      A                      A                      A
 Frequencies --    361.3079               403.2264               426.4820
 Red. masses --      1.8844                 2.8917                 2.6691
 Frc consts  --      0.1449                 0.2770                 0.2860
 IR Inten    --      4.8179                13.5273                 8.7130

                     13                     14                     15
                      A                      A                      A
 Frequencies --    440.0931               465.3606               535.0593
 Red. masses --      2.9858                 3.7808                 2.5317
 Frc consts  --      0.3407                 0.4824                 0.4270
 IR Inten    --      7.5627                 1.9840                 2.9398

                     16                     17                     18
                      A                      A                      A
 Frequencies --    552.7259               598.8589               665.7347
 Red. masses --      3.4008                 2.9692                 2.2590
 Frc consts  --      0.6121                 0.6274                 0.5899
 IR Inten    --     10.2783                 6.2367                12.2031

                     19                     20                     21
                      A                      A                      A
 Frequencies --    712.1005               822.1397               832.0679
 Red. masses --      2.8857                 1.9105                 1.6199
 Frc consts  --      0.8622                 0.7608                 0.6608
 IR Inten    --      1.5218                 9.2359                 0.2072

                     22                     23                     24
                      A                      A                      A
 Frequencies --    839.9439               867.0808               892.7841
 Red. masses --      3.1454                 1.9323                 2.4114
 Frc consts  --      1.3075                 0.8560                 1.1324
 IR Inten    --     10.6209                 5.8705                22.5556

                     25                     26                     27
                      A                      A                      A
 Frequencies --    904.9623               915.3099               921.5688
 Red. masses --      2.4721                 2.4890                 2.0728
 Frc consts  --      1.1928                 1.2286                 1.0372
 IR Inten    --      5.7867                18.0403                60.2836

                     28                     29                     30
                      A                      A                      A
 Frequencies --    936.9555               949.9372               988.1665
 Red. masses --      2.0680                 1.5632                 1.8497
 Frc consts  --      1.0697                 0.8311                 1.0642
 IR Inten    --     11.9869                 3.4009                28.0618

                     31                     32                     33
                      A                      A                      A
 Frequencies --   1029.3952              1048.9512              1062.1649
 Red. masses --      2.2179                 2.5951                 1.6088
 Frc consts  --      1.3847                 1.6824                 1.0694
 IR Inten    --     33.7351               181.0987                84.7901

                     34                     35                     36
                      A                      A                      A
 Frequencies --   1066.1039              1073.0747              1091.8656
 Red. masses --      1.7226                 2.2697                 2.5075
 Frc consts  --      1.1535                 1.5399                 1.7613
 IR Inten    --     17.7033                29.0572               231.5917

                     37                     38                     39
                      A                      A                      A
 Frequencies --   1126.1307              1147.3677              1154.3202
 Red. masses --      2.1168                 4.3123                 2.3285
 Frc consts  --      1.5817                 3.3447                 1.8281
 IR Inten    --    121.3941                51.9519                18.6933

                     40                     41                     42
                      A                      A                      A
 Frequencies --   1169.5679              1179.8213              1215.1100
 Red. masses --      3.8950                 2.7753                 1.3961
 Frc consts  --      3.1391                 2.2761                 1.2145
 IR Inten    --    166.4682                30.1044                11.7069

                     43                     44                     45
                      A                      A                      A
 Frequencies --   1216.2876              1233.7729              1252.5282
 Red. masses --      1.4191                 1.6204                 1.4688
 Frc consts  --      1.2369                 1.4532                 1.3576
 IR Inten    --      7.3493                55.3788                41.6577

                     46                     47                     48
                      A                      A                      A
 Frequencies --   1286.7999              1289.8205              1319.6074
 Red. masses --      1.1910                 1.2219                 1.1520
 Frc consts  --      1.1619                 1.1977                 1.1819
 IR Inten    --     23.2565                12.0207                10.5885

                     49                     50                     51
                      A                      A                      A
 Frequencies --   1329.8787              1339.6994              1358.2834
 Red. masses --      1.1920                 1.2826                 1.3423
 Frc consts  --      1.2421                 1.3563                 1.4591
 IR Inten    --      9.6030                 3.9457                12.1294

                     52                     53                     54
                      A                      A                      A
 Frequencies --   1365.6345              1375.3142              1383.3580
 Red. masses --      1.5583                 1.3790                 1.2629
 Frc consts  --      1.7123                 1.5368                 1.4239
 IR Inten    --     11.6508                 2.1628                26.9287

                     55                     56                     57
                      A                      A                      A
 Frequencies --   1388.1244              1392.4559              1400.9599
 Red. masses --      1.4102                 1.6986                 1.2547
 Frc consts  --      1.6009                 1.9404                 1.4509
 IR Inten    --      4.4687                19.2489                 9.8494

                     58                     59                     60
                      A                      A                      A
 Frequencies --   1404.7488              1424.0006              1431.2574
 Red. masses --      1.3980                 1.3367                 1.4413
 Frc consts  --      1.6254                 1.5970                 1.7396
 IR Inten    --     11.5988                 7.5876                16.0547

                     61                     62                     63
                      A                      A                      A
 Frequencies --   1438.4290              1475.9701              1482.1668
 Red. masses --      1.3267                 1.1067                 1.0855
 Frc consts  --      1.6174                 1.4205                 1.4050
 IR Inten    --      2.0109                 4.8881                 8.1457

                     64                     65                     66
                      A                      A                      A
 Frequencies --   1490.3579              1494.3175              1495.3634
 Red. masses --      1.0988                 1.0944                 1.1079
 Frc consts  --      1.4380                 1.4398                 1.4597
 IR Inten    --      1.9659                10.0354                15.7728

                     67                     68                     69
                      A                      A                      A
 Frequencies --   1502.5396              1508.7007              1517.4849
 Red. masses --      1.0790                 1.0942                 1.0987
 Frc consts  --      1.4352                 1.4674                 1.4906
 IR Inten    --      7.4878                 4.4351                 3.3954

                     70                     71                     72
                      A                      A                      A
 Frequencies --   3037.6361              3041.6369              3054.3212
 Red. masses --      1.0699                 1.0679                 1.0690
 Frc consts  --      5.8167                 5.8211                 5.8755
 IR Inten    --     63.7658                78.3439                55.6977

                     73                     74                     75
                      A                      A                      A
 Frequencies --   3062.9425              3064.2146              3073.0026
 Red. masses --      1.0626                 1.0821                 1.0631
 Frc consts  --      5.8734                 5.9864                 5.9150
 IR Inten    --     45.0350                33.2403                29.6506

                     76                     77                     78
                      A                      A                      A
 Frequencies --   3074.6392              3080.5602              3082.0887
 Red. masses --      1.0684                 1.0686                 1.0642
 Frc consts  --      5.9509                 5.9749                 5.9561
 IR Inten    --     28.3850                 7.9602                72.9476

                     79                     80                     81
                      A                      A                      A
 Frequencies --   3084.0652              3112.9104              3116.8930
 Red. masses --      1.0767                 1.0981                 1.0957
 Frc consts  --      6.0336                 6.2694                 6.2715
 IR Inten    --     46.6956                40.8683                15.4771

                     82                     83                     84
                      A                      A                      A
 Frequencies --   3119.4845              3130.3801              3131.5281
 Red. masses --      1.1022                 1.1037                 1.1032
 Frc consts  --      6.3194                 6.3722                 6.3740
 IR Inten    --     61.2421                31.9441                43.3528

                     85                     86                     87
                      A                      A                      A
 Frequencies --   3134.2257              3135.3531              3139.8439
 Red. masses --      1.1002                 1.0983                 1.0965
 Frc consts  --      6.3675                 6.3611                 6.3688
 IR Inten    --     79.4080                39.8398                21.6229

 - Thermochemistry -
 -------------------
 Temperature   298.150 Kelvin.  Pressure   1.00000 Atm.
 Atom     1 has atomic number  6 and mass  12.00000

 Molecular mass:   186.12559 amu.
 Principal axes and moments of inertia in atomic units:
                           1         2         3
     Eigenvalues --   955.060854362.073694528.53121
           X            0.99988   0.00962  -0.01177
           Y           -0.00873   0.99727   0.07338
           Z            0.01244  -0.07327   0.99723
 This molecule is an asymmetric top.
 Rotational symmetry number  1.
 Warning -- assumption of classical behavior for rotation
           may cause significant error
 Rotational temperatures (Kelvin)      0.09069     0.01986     0.01913
 Rotational constants (GHZ):           1.88966     0.41373     0.39853
    1 imaginary frequencies ignored.
 Zero-point vibrational energy     736261.7 (Joules/Mol)
                                  175.97077 (Kcal/Mol)
 Warning -- explicit consideration of  16 degrees of freedom as
           vibrations may cause significant error
 Vibrational temperatures:     68.34    82.45   176.19   236.75   304.38
          (Kelvin)            346.62   406.74   427.39   519.84   580.15
                              613.61   633.20   669.55   769.83   795.25
                              861.62   957.84  1024.55  1182.88  1197.16
                             1208.49  1247.54  1284.52  1302.04  1316.93
                             1325.93  1348.07  1366.75  1421.75  1481.07
                             1509.21  1528.22  1533.89  1543.92  1570.95
                             1620.25  1650.81  1660.81  1682.75  1697.50
                             1748.27  1749.97  1775.12  1802.11  1851.42
                             1855.76  1898.62  1913.40  1927.53  1954.27
                             1964.84  1978.77  1990.34  1997.20  2003.43
                             2015.67  2021.12  2048.82  2059.26  2069.58
                             2123.59  2132.51  2144.29  2149.99  2151.49
                             2161.82  2170.68  2183.32  4370.48  4376.24
                             4394.49  4406.89  4408.72  4421.37  4423.72
                             4432.24  4434.44  4437.28  4478.78  4484.51
                             4488.24  4503.92  4505.57  4509.45  4511.07
                             4517.54

 Zero-point correction=                           0.280427 (Hartree/Particle)
 Thermal correction to Energy=                    0.291506
 Thermal correction to Enthalpy=                  0.292450
 Thermal correction to Gibbs Free Energy=         0.242918
 Sum of electronic and zero-point Energies=           -617.215698
 Sum of electronic and thermal Energies=              -617.204619
 Sum of electronic and thermal Enthalpies=            -617.203675
 Sum of electronic and thermal Free Energies=         -617.253208

                     E (Thermal)             CV                S
                      KCal/Mol        Cal/Mol-Kelvin    Cal/Mol-Kelvin
 Total                  182.923             44.794            104.250
 Electronic               0.000              0.000              0.000
 Translational            0.889              2.981             41.570
 Rotational               0.889              2.981             31.312
 Vibrational            181.145             38.833             31.368
 Vibration     1          0.595              1.979              4.919
 Vibration     2          0.596              1.975              4.548
 Vibration     3          0.610              1.930              3.061
 Vibration     4          0.623              1.886              2.497
 Vibration     5          0.643              1.823              2.030
 Vibration     6          0.658              1.778              1.796
 Vibration     7          0.682              1.706              1.517
 Vibration     8          0.691              1.679              1.433
 Vibration     9          0.735              1.552              1.116
 Vibration    10          0.769              1.463              0.951
 Vibration    11          0.788              1.413              0.870
 Vibration    12          0.800              1.383              0.826
 Vibration    13          0.823              1.327              0.751
 Vibration    14          0.890              1.172              0.576
 Vibration    15          0.908              1.134              0.539
 Vibration    16          0.957              1.034              0.452

 Optimization completed.
    -- Stationary point found.
 Normal termination of Gaussian 16 at Sun Nov  4 22:55:47 2018.
