 Gaussian 16, Revision A.03,
 Gaussian 16:  ES64L-G16RevA.03 25-Dec-2016

 ----------------------------------------------------------------------
 #M062X/6-311++G(2d,2p) opt=ModRedundant freq=noraman SCRF=(Solvent=Wat
 er)
 ----------------------------------------------------------------------

 -----------------------------
 D_a1-4_2SO_PSI.inp_extract_11
 -----------------------------
 Symbolic Z-matrix:
 Charge =  0 Multiplicity = 1

 SCF Done:  E(RM062X) =  -617.485529267     A.U. after   12 cycles
 SCF Done:  E(RM062X) =  -617.486992673     A.U. after   12 cycles
 SCF Done:  E(RM062X) =  -617.487259897     A.U. after   11 cycles
 SCF Done:  E(RM062X) =  -617.487484192     A.U. after   10 cycles
 SCF Done:  E(RM062X) =  -617.487574450     A.U. after   10 cycles
 SCF Done:  E(RM062X) =  -617.487607605     A.U. after    9 cycles
 SCF Done:  E(RM062X) =  -617.487638319     A.U. after    9 cycles
 SCF Done:  E(RM062X) =  -617.487649594     A.U. after   10 cycles
 SCF Done:  E(RM062X) =  -617.487676149     A.U. after   10 cycles
 SCF Done:  E(RM062X) =  -617.487678119     A.U. after    9 cycles
 SCF Done:  E(RM062X) =  -617.487677838     A.U. after    8 cycles
 Optimization completed.
    -- Stationary point found.
 Normal termination of Gaussian 16 at Sun Nov  4 22:15:30 2018.

 ----------------------------------------------------------------------
 #N Geom=AllCheck Guess=TCheck SCRF=Check GenChk RM062X/6-311++G(2d,2p)
  Freq
 ----------------------------------------------------------------------

 Structure from the checkpoint file:  "D_a1-4_2SO_PSI.inp_extract_11.chk"
 -----------------------------
 D_a1-4_2SO_PSI.inp_extract_11
 -----------------------------
 Charge =  0 Multiplicity = 1

                         Standard orientation:
 ---------------------------------------------------------------------
 Center     Atomic      Atomic             Coordinates (Angstroms)
 Number     Number       Type             X           Y           Z
 ---------------------------------------------------------------------
      1          6           0       -1.056519   -0.942374    0.556249
      2          6           0       -3.306986    0.708583   -0.415044
      3          8           0        1.034601    0.461739   -1.061392
      4          6           0       -1.732563   -0.983220   -0.830800
      5          6           0       -1.547733    0.296884    1.296784
      6          8           0        0.376947   -1.017874    0.618147
      7          6           0        2.598875   -1.172466   -0.158297
      8          6           0        3.216657   -0.100333    0.735202
      9          6           0        1.159798   -0.837672   -0.528918
     10          6           0        3.045112    1.262689    0.068939
     11          6           0        1.573975    1.490557   -0.230111
     12          6           0       -3.052142    0.424429    1.073538
     13          8           0       -2.214953    0.285942   -1.225896
     14          1           0       -1.391521   -1.825913    1.103521
     15          1           0       -4.224177    0.218250   -0.755266
     16          1           0       -3.400820    1.778438   -0.591851
     17          1           0       -1.064887   -1.323483   -1.614878
     18          1           0       -2.567377   -1.689912   -0.785058
     19          1           0       -1.044487    1.173996    0.890525
     20          1           0       -1.297812    0.219122    2.353659
     21          1           0        2.616389   -2.153529    0.314160
     22          1           0        3.165051   -1.240014   -1.089304
     23          1           0        2.717099   -0.095553    1.706269
     24          1           0        4.269085   -0.320216    0.911486
     25          1           0        0.832120   -1.496136   -1.332273
     26          1           0        3.408791    2.066281    0.710028
     27          1           0        3.614018    1.296392   -0.863379
     28          1           0        1.409717    2.419034   -0.772568
     29          1           0        1.015305    1.534753    0.708030
     30          1           0       -3.541718   -0.503854    1.375185
     31          1           0       -3.478399    1.221434    1.679590
 ---------------------------------------------------------------------

 SCF Done:  E(RM062X) =  -617.487677838     A.U. after    1 cycles

 The electronic state is 1-A.
 Alpha  occ. eigenvalues --  -19.62864 -19.62836 -19.62701 -10.63407 -10.59007
 Alpha  occ. eigenvalues --  -10.58330 -10.57985 -10.57685 -10.53287 -10.53008
 Alpha  occ. eigenvalues --  -10.52989 -10.52937 -10.52810  -1.19590  -1.16314
 Alpha  occ. eigenvalues --   -1.12979  -0.90944  -0.89759  -0.86726  -0.84578
 Alpha  occ. eigenvalues --   -0.75392  -0.74353  -0.72961  -0.70657  -0.65196
 Alpha  occ. eigenvalues --   -0.61381  -0.60761  -0.58751  -0.58350  -0.56130
 Alpha  occ. eigenvalues --   -0.53709  -0.53172  -0.52790  -0.50144  -0.49486
 Alpha  occ. eigenvalues --   -0.47677  -0.46801  -0.45634  -0.45070  -0.44285
 Alpha  occ. eigenvalues --   -0.43868  -0.42861  -0.41528  -0.40761  -0.39849
 Alpha  occ. eigenvalues --   -0.38383  -0.36816  -0.36174  -0.34003  -0.33234
 Alpha  occ. eigenvalues --   -0.32042
 Alpha virt. eigenvalues --   -0.00170   0.00769   0.00834   0.01065   0.02306
 Alpha virt. eigenvalues --    0.02478   0.02629   0.03238   0.03634   0.04463
 Alpha virt. eigenvalues --    0.04747   0.04953   0.05474   0.05816   0.07110

 Mulliken charges:
               1
     1  C    0.041094
     2  C   -0.282828
     3  O   -0.275275
     4  C   -0.274108
     5  C   -0.243648
     6  O   -0.322763
     7  C   -0.461665
     8  C   -0.298393
     9  C   -0.118239
    10  C   -0.399292
    11  C   -0.088150
    12  C   -0.301250
    13  O   -0.290631
    14  H    0.261087
    15  H    0.175031
    16  H    0.171975
    17  H    0.217728
    18  H    0.178397
    19  H    0.165557
    20  H    0.187829
    21  H    0.185492
    22  H    0.198539
    23  H    0.174815
    24  H    0.184892
    25  H    0.223939
    26  H    0.173159
    27  H    0.162372
    28  H    0.211641
    29  H    0.107009
    30  H    0.180117
    31  H    0.155567
 Sum of Mulliken charges =  -0.00000

 Dipole moment (field-independent basis, Debye):
    X=             -0.4796    Y=             -0.6632    Z=              1.9847  Tot=              2.1468
 Quadrupole moment (field-independent basis, Debye-Ang):
   XX=            -69.4378   YY=            -75.6728   ZZ=            -85.1829
   XY=              1.9283   XZ=             -4.0963   YZ=              4.5959

  Exact polarizability: 173.093  -1.369 158.292  -0.399   1.613 151.684
 Approx polarizability: 145.800   0.055 143.847  -1.474   0.039 141.538

 ******    1 imaginary frequencies (negative Signs) ******

                      1                      2                      3
                      A                      A                      A
 Frequencies --    -59.3937                69.8879                95.3008
 Red. masses --      3.7218                 3.8317                 3.4585
 Frc consts  --      0.0077                 0.0110                 0.0185
 IR Inten    --      1.3864                 1.6718                 3.9895

                      4                      5                      6
                      A                      A                      A
 Frequencies --    114.7236               168.4462               197.6481
 Red. masses --      3.0826                 3.3391                 2.2979
 Frc consts  --      0.0239                 0.0558                 0.0529
 IR Inten    --      4.0349                 5.1756                 4.6904

                      7                      8                      9
                      A                      A                      A
 Frequencies --    228.9012               300.7722               312.0037
 Red. masses --      2.4109                 2.3442                 3.4149
 Frc consts  --      0.0744                 0.1249                 0.1959
 IR Inten    --      5.4188                 7.6757                 6.1261

                     10                     11                     12
                      A                      A                      A
 Frequencies --    347.6465               388.2050               428.0608
 Red. masses --      2.0705                 2.4874                 2.5616
 Frc consts  --      0.1474                 0.2209                 0.2765
 IR Inten    --      0.9535                15.1641                 3.0126

                     13                     14                     15
                      A                      A                      A
 Frequencies --    442.4662               454.4370               530.4204
 Red. masses --      3.1331                 3.3687                 2.5380
 Frc consts  --      0.3614                 0.4099                 0.4207
 IR Inten    --      7.2210                 3.4998                 3.4679

                     16                     17                     18
                      A                      A                      A
 Frequencies --    553.9718               632.0412               653.8847
 Red. masses --      3.2202                 2.7712                 2.6071
 Frc consts  --      0.5822                 0.6522                 0.6568
 IR Inten    --      4.2467                13.2458                 7.5629

                     19                     20                     21
                      A                      A                      A
 Frequencies --    689.4415               797.7882               833.3452
 Red. masses --      2.8608                 2.3931                 1.5899
 Frc consts  --      0.8012                 0.8974                 0.6505
 IR Inten    --      2.4312                10.4725                 2.0967

                     22                     23                     24
                      A                      A                      A
 Frequencies --    840.7345               854.5707               894.7354
 Red. masses --      3.0858                 1.7784                 2.3383
 Frc consts  --      1.2851                 0.7652                 1.1029
 IR Inten    --      8.8609                 6.8929                27.3798

                     25                     26                     27
                      A                      A                      A
 Frequencies --    906.5447               918.1856               923.9323
 Red. masses --      2.6393                 2.4928                 2.0524
 Frc consts  --      1.2780                 1.2382                 1.0323
 IR Inten    --      2.6785                11.2890                 2.0941

                     28                     29                     30
                      A                      A                      A
 Frequencies --    931.6187               954.7180               983.6540
 Red. masses --      1.9162                 1.5974                 2.0164
 Frc consts  --      0.9799                 0.8578                 1.1495
 IR Inten    --     53.9336                 8.8594                25.7768

                     31                     32                     33
                      A                      A                      A
 Frequencies --   1019.0562              1047.0005              1062.3747
 Red. masses --      2.1977                 2.3709                 1.6473
 Frc consts  --      1.3447                 1.5313                 1.0954
 IR Inten    --     89.7558                58.3566                59.7333

                     34                     35                     36
                      A                      A                      A
 Frequencies --   1066.8170              1074.5103              1087.7221
 Red. masses --      1.7693                 2.0543                 2.7570
 Frc consts  --      1.1864                 1.3974                 1.9218
 IR Inten    --     25.5294                23.6722               226.4267

                     37                     38                     39
                      A                      A                      A
 Frequencies --   1138.2839              1148.5005              1155.5321
 Red. masses --      2.2680                 3.6680                 2.7539
 Frc consts  --      1.7314                 2.8506                 2.1665
 IR Inten    --     33.9898               166.3544                32.7988

                     40                     41                     42
                      A                      A                      A
 Frequencies --   1167.7507              1190.8345              1209.2430
 Red. masses --      2.4470                 3.6728                 1.3932
 Frc consts  --      1.9660                 3.0687                 1.2003
 IR Inten    --     25.2329               203.1743                21.3286

                     43                     44                     45
                      A                      A                      A
 Frequencies --   1215.2011              1235.3627              1253.3298
 Red. masses --      1.4349                 1.6718                 1.4958
 Frc consts  --      1.2485                 1.5032                 1.3844
 IR Inten    --      1.4370                56.6281                29.4213

                     46                     47                     48
                      A                      A                      A
 Frequencies --   1289.7183              1292.8621              1322.5539
 Red. masses --      1.2169                 1.1758                 1.1715
 Frc consts  --      1.1926                 1.1579                 1.2073
 IR Inten    --     23.6789                27.2412                 8.9094

                     49                     50                     51
                      A                      A                      A
 Frequencies --   1337.9454              1344.7078              1363.1166
 Red. masses --      1.2291                 1.3161                 1.3650
 Frc consts  --      1.2964                 1.4022                 1.4944
 IR Inten    --      7.6012                11.8984                10.4806

                     52                     53                     54
                      A                      A                      A
 Frequencies --   1369.6646              1378.5518              1386.4188
 Red. masses --      1.4460                 1.3960                 1.4665
 Frc consts  --      1.5982                 1.5630                 1.6608
 IR Inten    --      9.5621                10.0356                 1.4642

                     55                     56                     57
                      A                      A                      A
 Frequencies --   1389.1621              1396.4070              1401.1060
 Red. masses --      1.3676                 1.5420                 1.2375
 Frc consts  --      1.5549                 1.7716                 1.4314
 IR Inten    --      2.4422                 8.9071                 9.4518

                     58                     59                     60
                      A                      A                      A
 Frequencies --   1415.7467              1426.5962              1434.3903
 Red. masses --      1.3168                 1.2804                 1.3148
 Frc consts  --      1.5550                 1.5353                 1.5939
 IR Inten    --      6.2790                 0.4858                24.7310

                     61                     62                     63
                      A                      A                      A
 Frequencies --   1439.3825              1476.2025              1483.4146
 Red. masses --      1.3160                 1.1010                 1.0873
 Frc consts  --      1.6065                 1.4135                 1.4097
 IR Inten    --     12.1138                 5.5495                 8.0856

                     64                     65                     66
                      A                      A                      A
 Frequencies --   1491.6076              1494.5423              1500.3319
 Red. masses --      1.0981                 1.1067                 1.0919
 Frc consts  --      1.4395                 1.4565                 1.4481
 IR Inten    --      5.3016                 9.6516                10.9757

                     67                     68                     69
                      A                      A                      A
 Frequencies --   1505.8576              1508.5839              1518.0775
 Red. masses --      1.0821                 1.0943                 1.0985
 Frc consts  --      1.4457                 1.4673                 1.4915
 IR Inten    --     13.8306                 4.6993                 8.4015

                     70                     71                     72
                      A                      A                      A
 Frequencies --   3037.0543              3040.4660              3060.7762
 Red. masses --      1.0705                 1.0733                 1.0662
 Frc consts  --      5.8175                 5.8457                 5.8850
 IR Inten    --    100.5956                22.7414                31.9651

                     73                     74                     75
                      A                      A                      A
 Frequencies --   3068.3095              3069.5256              3070.8812
 Red. masses --      1.0656                 1.0813                 1.0638
 Frc consts  --      5.9108                 6.0024                 5.9109
 IR Inten    --     43.5757                49.7246                26.3454

                     76                     77                     78
                      A                      A                      A
 Frequencies --   3071.3515              3075.8990              3094.1826
 Red. masses --      1.0680                 1.0630                 1.0591
 Frc consts  --      5.9356                 5.9255                 5.9744
 IR Inten    --     77.0143                22.6368                34.9327

                     79                     80                     81
                      A                      A                      A
 Frequencies --   3100.9887              3113.3196              3118.8408
 Red. masses --      1.0856                 1.0979                 1.0948
 Frc consts  --      6.1507                 6.2699                 6.2744
 IR Inten    --     82.7924                33.3267                15.9555

                     82                     83                     84
                      A                      A                      A
 Frequencies --   3118.9427              3131.0252              3134.8063
 Red. masses --      1.1020                 1.1020                 1.1007
 Frc consts  --      6.3160                 6.3650                 6.3729
 IR Inten    --     67.2104                37.9517                53.8679

                     85                     86                     87
                      A                      A                      A
 Frequencies --   3135.4750              3143.9515              3177.4951
 Red. masses --      1.0988                 1.1056                 1.0891
 Frc consts  --      6.3648                 6.4384                 6.4786
 IR Inten    --     77.8135                16.4562                27.7315

 - Thermochemistry -
 -------------------
 Temperature   298.150 Kelvin.  Pressure   1.00000 Atm.
 Atom     1 has atomic number  6 and mass  12.00000

 Molecular mass:   186.12559 amu.
 Principal axes and moments of inertia in atomic units:
                           1         2         3
     Eigenvalues --  1048.621473755.870653862.38685
           X            0.99999   0.00286  -0.00406
           Y           -0.00214   0.98600   0.16671
           Z            0.00448  -0.16670   0.98600
 This molecule is an asymmetric top.
 Rotational symmetry number  1.
 Warning -- assumption of classical behavior for rotation
           may cause significant error
 Rotational temperatures (Kelvin)      0.08260     0.02306     0.02242
 Rotational constants (GHZ):           1.72106     0.48051     0.46726
    1 imaginary frequencies ignored.
 Zero-point vibrational energy     737197.8 (Joules/Mol)
                                  176.19450 (Kcal/Mol)
 Warning -- explicit consideration of  15 degrees of freedom as
           vibrations may cause significant error
 Vibrational temperatures:    100.55   137.12   165.06   242.36   284.37
          (Kelvin)            329.34   432.74   448.90   500.19   558.54
                              615.88   636.61   653.83   763.16   797.04
                              909.37   940.79   991.95  1147.84  1199.00
                             1209.63  1229.54  1287.32  1304.32  1321.06
                             1329.33  1340.39  1373.63  1415.26  1466.19
                             1506.40  1528.52  1534.91  1545.98  1564.99
                             1637.74  1652.44  1662.55  1680.13  1713.35
                             1739.83  1748.40  1777.41  1803.26  1855.62
                             1860.14  1902.86  1925.01  1934.73  1961.22
                             1970.64  1983.43  1994.75  1998.69  2009.12
                             2015.88  2036.94  2052.55  2063.77  2070.95
                             2123.93  2134.30  2146.09  2150.31  2158.64
                             2166.59  2170.52  2184.17  4369.64  4374.55
                             4403.77  4414.61  4416.36  4418.31  4418.99
                             4425.53  4451.84  4461.63  4479.37  4487.32
                             4487.46  4504.85  4510.29  4511.25  4523.44
                             4571.71

 Zero-point correction=                           0.280784 (Hartree/Particle)
 Thermal correction to Energy=                    0.291786
 Thermal correction to Enthalpy=                  0.292730
 Thermal correction to Gibbs Free Energy=         0.244012
 Sum of electronic and zero-point Energies=           -617.206894
 Sum of electronic and thermal Energies=              -617.195892
 Sum of electronic and thermal Enthalpies=            -617.194947
 Sum of electronic and thermal Free Energies=         -617.243666

                     E (Thermal)             CV                S
                      KCal/Mol        Cal/Mol-Kelvin    Cal/Mol-Kelvin
 Total                  183.099             44.844            102.536
 Electronic               0.000              0.000              0.000
 Translational            0.889              2.981             41.570
 Rotational               0.889              2.981             31.098
 Vibrational            181.321             38.882             29.868
 Vibration     1          0.598              1.968              4.157
 Vibration     2          0.603              1.953              3.548
 Vibration     3          0.608              1.937              3.187
 Vibration     4          0.625              1.881              2.453
 Vibration     5          0.637              1.843              2.155
 Vibration     6          0.652              1.797              1.888
 Vibration     7          0.693              1.672              1.413
 Vibration     8          0.700              1.651              1.352
 Vibration     9          0.725              1.580              1.177
 Vibration    10          0.756              1.495              1.007
 Vibration    11          0.790              1.409              0.865
 Vibration    12          0.802              1.378              0.819
 Vibration    13          0.813              1.351              0.782
 Vibration    14          0.885              1.183              0.586
 Vibration    15          0.909              1.131              0.536

 Optimization completed.
    -- Stationary point found.
 Normal termination of Gaussian 16 at Sun Nov  4 23:10:01 2018.
