 Gaussian 16, Revision A.03,
 Gaussian 16:  ES64L-G16RevA.03 25-Dec-2016

 ----------------------------------------------------------------------
 #M062X/6-311++G(2d,2p) opt=ModRedundant freq=noraman SCRF=(Solvent=Wat
 er)
 ----------------------------------------------------------------------

 -----------------------------
 D_a1-4_2SO_PSI.inp_extract_21
 -----------------------------
 Symbolic Z-matrix:
 Charge =  0 Multiplicity = 1

 SCF Done:  E(RM062X) =  -617.493629576     A.U. after   13 cycles
 SCF Done:  E(RM062X) =  -617.495450359     A.U. after   11 cycles
 SCF Done:  E(RM062X) =  -617.495610751     A.U. after   10 cycles
 SCF Done:  E(RM062X) =  -617.495707886     A.U. after    9 cycles
 SCF Done:  E(RM062X) =  -617.495712392     A.U. after    9 cycles
 SCF Done:  E(RM062X) =  -617.495713291     A.U. after    7 cycles
 SCF Done:  E(RM062X) =  -617.495713607     A.U. after    8 cycles
 Optimization completed.
    -- Stationary point found.
 Normal termination of Gaussian 16 at Sun Nov  4 21:54:54 2018.

 ----------------------------------------------------------------------
 #N Geom=AllCheck Guess=TCheck SCRF=Check GenChk RM062X/6-311++G(2d,2p)
  Freq
 ----------------------------------------------------------------------

 Structure from the checkpoint file:  "D_a1-4_2SO_PSI.inp_extract_21.chk"
 -----------------------------
 D_a1-4_2SO_PSI.inp_extract_21
 -----------------------------
 Charge =  0 Multiplicity = 1

                         Standard orientation:
 ---------------------------------------------------------------------
 Center     Atomic      Atomic             Coordinates (Angstroms)
 Number     Number       Type             X           Y           Z
 ---------------------------------------------------------------------
      1          6           0        0.924103    0.099756   -0.486132
      2          6           0        3.782986   -0.155331    0.171949
      3          8           0       -1.556929    1.262748    0.291357
      4          6           0        1.924628   -0.920747   -1.034337
      5          6           0        1.588787    0.941197    0.604351
      6          8           0       -0.236229   -0.617302   -0.059441
      7          6           0       -2.226617   -0.900660    1.176866
      8          6           0       -3.135495   -1.123388   -0.030415
      9          6           0       -1.087126    0.046877    0.837790
     10          6           0       -3.579964    0.227685   -0.587800
     11          6           0       -2.362216    1.089223   -0.875749
     12          6           0        3.036330    1.185915    0.184670
     13          8           0        2.899946   -1.250883   -0.064525
     14          1           0        0.624300    0.766654   -1.302081
     15          1           0        4.571662   -0.155253   -0.586143
     16          1           0        4.234873   -0.349833    1.143108
     17          1           0        1.402190   -1.837802   -1.297411
     18          1           0        2.412041   -0.528577   -1.932246
     19          1           0        1.587525    0.384573    1.543787
     20          1           0        1.047122    1.871494    0.759322
     21          1           0       -1.807156   -1.836784    1.543478
     22          1           0       -2.796630   -0.448268    1.990404
     23          1           0       -2.591811   -1.673302   -0.800938
     24          1           0       -3.996149   -1.727575    0.254503
     25          1           0       -0.547891    0.341703    1.736937
     26          1           0       -4.159925    0.105835   -1.503110
     27          1           0       -4.213081    0.739431    0.141172
     28          1           0       -2.644121    2.092170   -1.188440
     29          1           0       -1.759906    0.636197   -1.668830
     30          1           0        3.055418    1.646233   -0.805096
     31          1           0        3.534737    1.873439    0.865296
 ---------------------------------------------------------------------

 SCF Done:  E(RM062X) =  -617.495713607     A.U. after    1 cycles

 The electronic state is 1-A.
 Alpha  occ. eigenvalues --  -19.63121 -19.62897 -19.62857 -10.63291 -10.58864
 Alpha  occ. eigenvalues --  -10.58083 -10.58078 -10.57769 -10.53478 -10.53371
 Alpha  occ. eigenvalues --  -10.53030 -10.52944 -10.52843  -1.19979  -1.16447
 Alpha  occ. eigenvalues --   -1.13084  -0.90941  -0.89610  -0.87331  -0.84305
 Alpha  occ. eigenvalues --   -0.75411  -0.74302  -0.72700  -0.70821  -0.64848
 Alpha  occ. eigenvalues --   -0.62498  -0.60227  -0.58849  -0.58457  -0.55419
 Alpha  occ. eigenvalues --   -0.54249  -0.54023  -0.52549  -0.50011  -0.49240
 Alpha  occ. eigenvalues --   -0.48452  -0.46220  -0.45667  -0.45330  -0.44891
 Alpha  occ. eigenvalues --   -0.43735  -0.42550  -0.41937  -0.40845  -0.39310
 Alpha  occ. eigenvalues --   -0.38510  -0.37494  -0.36220  -0.34260  -0.33399
 Alpha  occ. eigenvalues --   -0.32309
 Alpha virt. eigenvalues --   -0.00139   0.00783   0.00819   0.01120   0.02208
 Alpha virt. eigenvalues --    0.02413   0.02629   0.03495   0.03619   0.04406
 Alpha virt. eigenvalues --    0.04542   0.04650   0.05681   0.05944   0.06896

 Mulliken charges:
               1
     1  C   -0.015108
     2  C   -0.264230
     3  O   -0.277822
     4  C   -0.385471
     5  C   -0.115049
     6  O   -0.287719
     7  C   -0.511607
     8  C   -0.281802
     9  C   -0.015845
    10  C   -0.414593
    11  C   -0.084257
    12  C   -0.391219
    13  O   -0.313296
    14  H    0.198631
    15  H    0.176398
    16  H    0.177511
    17  H    0.197259
    18  H    0.182747
    19  H    0.206975
    20  H    0.204893
    21  H    0.185497
    22  H    0.190964
    23  H    0.171299
    24  H    0.184872
    25  H    0.264114
    26  H    0.172421
    27  H    0.163156
    28  H    0.200428
    29  H    0.131078
    30  H    0.186067
    31  H    0.163709
 Sum of Mulliken charges =  -0.00000

 Dipole moment (field-independent basis, Debye):
    X=             -0.3378    Y=              1.6990    Z=             -0.9135  Tot=              1.9583
 Quadrupole moment (field-independent basis, Debye-Ang):
   XX=            -72.5163   YY=            -85.9189   ZZ=            -75.7254
   XY=              8.2656   XZ=              0.4368   YZ=             -0.9947

  Exact polarizability: 174.987   2.093 153.750   1.540  -1.124 154.056
 Approx polarizability: 145.624   0.724 141.656   0.919  -0.589 143.191

                      1                      2                      3
                      A                      A                      A
 Frequencies --     46.6511                62.9125                95.9306
 Red. masses --      3.6609                 3.4737                 3.6497
 Frc consts  --      0.0047                 0.0081                 0.0198
 IR Inten    --      1.0918                 1.5508                 2.1730

                      4                      5                      6
                      A                      A                      A
 Frequencies --    115.9207               185.4896               211.9776
 Red. masses --      3.0929                 3.7901                 2.4269
 Frc consts  --      0.0245                 0.0768                 0.0643
 IR Inten    --      4.5361                 3.7289                 6.4505

                      7                      8                      9
                      A                      A                      A
 Frequencies --    233.7935               274.7306               312.5967
 Red. masses --      2.9034                 2.2252                 2.3299
 Frc consts  --      0.0935                 0.0990                 0.1341
 IR Inten    --      7.7317                 1.8625                 1.0681

                     10                     11                     12
                      A                      A                      A
 Frequencies --    368.4218               391.5243               437.2571
 Red. masses --      1.9129                 2.7225                 2.3971
 Frc consts  --      0.1530                 0.2459                 0.2700
 IR Inten    --      7.7015                16.3094                 2.9195

                     13                     14                     15
                      A                      A                      A
 Frequencies --    445.8086               463.1739               536.7077
 Red. masses --      3.4450                 4.0995                 2.2944
 Frc consts  --      0.4034                 0.5182                 0.3894
 IR Inten    --      3.6911                 3.6245                 4.7503

                     16                     17                     18
                      A                      A                      A
 Frequencies --    585.1307               594.9257               668.0201
 Red. masses --      3.3176                 3.1192                 2.2586
 Frc consts  --      0.6692                 0.6505                 0.5938
 IR Inten    --      8.3800                 4.5149                11.5900

                     19                     20                     21
                      A                      A                      A
 Frequencies --    715.7335               812.5286               833.0209
 Red. masses --      3.0901                 2.1931                 1.5349
 Frc consts  --      0.9327                 0.8531                 0.6276
 IR Inten    --      2.0991                 6.1467                 1.2607

                     22                     23                     24
                      A                      A                      A
 Frequencies --    840.4342               865.1295               894.4539
 Red. masses --      3.5622                 1.8066                 2.4623
 Frc consts  --      1.4824                 0.7967                 1.1606
 IR Inten    --     10.0037                 4.4978                18.5781

                     25                     26                     27
                      A                      A                      A
 Frequencies --    912.1535               919.6453               926.0243
 Red. masses --      2.4449                 2.6436                 1.9443
 Frc consts  --      1.1985                 1.3173                 0.9823
 IR Inten    --     21.7523                 6.7409                63.2867

                     28                     29                     30
                      A                      A                      A
 Frequencies --    930.7890               961.6845               983.0526
 Red. masses --      2.0019                 1.5944                 1.8873
 Frc consts  --      1.0219                 0.8688                 1.0746
 IR Inten    --     12.5081                 6.7460                35.3174

                     31                     32                     33
                      A                      A                      A
 Frequencies --   1035.4700              1048.7681              1062.4269
 Red. masses --      2.1127                 2.4842                 1.6280
 Frc consts  --      1.3346                 1.6099                 1.0827
 IR Inten    --     17.1552               163.6406                96.7748

                     34                     35                     36
                      A                      A                      A
 Frequencies --   1066.4114              1073.6018              1079.9477
 Red. masses --      1.8668                 2.1613                 2.2500
 Frc consts  --      1.2508                 1.4678                 1.5461
 IR Inten    --     10.8285                11.3358               170.2930

                     37                     38                     39
                      A                      A                      A
 Frequencies --   1134.5074              1147.1639              1159.2308
 Red. masses --      2.4829                 4.3567                 2.4999
 Frc consts  --      1.8829                 3.3780                 1.9793
 IR Inten    --     93.4381               106.2106                15.6010

                     40                     41                     42
                      A                      A                      A
 Frequencies --   1172.1423              1187.0865              1212.5308
 Red. masses --      2.2122                 4.0363                 1.3935
 Frc consts  --      1.7908                 3.3512                 1.2071
 IR Inten    --     21.2500               206.4592                22.6501

                     43                     44                     45
                      A                      A                      A
 Frequencies --   1220.0302              1233.9648              1251.5217
 Red. masses --      1.3783                 1.6140                 1.4569
 Frc consts  --      1.2088                 1.4480                 1.3444
 IR Inten    --      7.1599                48.1248                34.1660

                     46                     47                     48
                      A                      A                      A
 Frequencies --   1289.0407              1290.6654              1320.4635
 Red. masses --      1.2175                 1.1912                 1.1482
 Frc consts  --      1.1919                 1.1691                 1.1795
 IR Inten    --     26.3951                 9.1143                 8.3523

                     49                     50                     51
                      A                      A                      A
 Frequencies --   1330.2394              1345.5057              1361.0021
 Red. masses --      1.1891                 1.3041                 1.3514
 Frc consts  --      1.2397                 1.3910                 1.4749
 IR Inten    --     21.6605                 3.6569                 8.9061

                     52                     53                     54
                      A                      A                      A
 Frequencies --   1368.8261              1376.7757              1387.5171
 Red. masses --      1.3304                 1.5495                 1.4491
 Frc consts  --      1.4687                 1.7305                 1.6437
 IR Inten    --      5.4496                 1.6989                 2.4695

                     55                     56                     57
                      A                      A                      A
 Frequencies --   1390.0715              1396.3439              1400.8953
 Red. masses --      1.3113                 1.6859                 1.2782
 Frc consts  --      1.4929                 1.9367                 1.4780
 IR Inten    --      5.4841                16.4265                12.8126

                     58                     59                     60
                      A                      A                      A
 Frequencies --   1410.7715              1422.6634              1427.3120
 Red. masses --      1.3586                 1.3602                 1.3833
 Frc consts  --      1.5931                 1.6220                 1.6603
 IR Inten    --      9.9295                 9.3261                 7.1517

                     61                     62                     63
                      A                      A                      A
 Frequencies --   1433.1818              1475.3452              1482.0727
 Red. masses --      1.3510                 1.1035                 1.0863
 Frc consts  --      1.6349                 1.4152                 1.4059
 IR Inten    --     17.2324                 4.7546                 7.6280

                     64                     65                     66
                      A                      A                      A
 Frequencies --   1494.2271              1495.1367              1499.1833
 Red. masses --      1.0926                 1.1042                 1.0965
 Frc consts  --      1.4374                 1.4543                 1.4520
 IR Inten    --      1.2175                15.9497                 9.5757

                     67                     68                     69
                      A                      A                      A
 Frequencies --   1504.6724              1507.6999              1518.3348
 Red. masses --      1.0783                 1.0937                 1.0982
 Frc consts  --      1.4383                 1.4648                 1.4916
 IR Inten    --      6.6721                 3.4970                 3.5639

                     70                     71                     72
                      A                      A                      A
 Frequencies --   3026.2448              3040.9475              3047.1024
 Red. masses --      1.0805                 1.0684                 1.0719
 Frc consts  --      5.8301                 5.8211                 5.8638
 IR Inten    --     26.5964                95.3639               112.0576

                     73                     74                     75
                      A                      A                      A
 Frequencies --   3050.3279              3062.9596              3070.7988
 Red. masses --      1.0691                 1.0632                 1.0686
 Frc consts  --      5.8607                 5.8767                 5.9369
 IR Inten    --     29.6471                39.4403                 3.8960

                     76                     77                     78
                      A                      A                      A
 Frequencies --   3072.2534              3077.7804              3079.5399
 Red. masses --      1.0630                 1.0628                 1.0632
 Frc consts  --      5.9115                 5.9315                 5.9404
 IR Inten    --     34.9862                54.8025                30.8173

                     79                     80                     81
                      A                      A                      A
 Frequencies --   3112.8754              3115.6703              3117.4746
 Red. masses --      1.0953                 1.0886                 1.0956
 Frc consts  --      6.2534                 6.2263                 6.2736
 IR Inten    --     78.6373                15.7580                12.5057

                     82                     83                     84
                      A                      A                      A
 Frequencies --   3119.3061              3129.7467              3134.4098
 Red. masses --      1.1012                 1.1033                 1.0995
 Frc consts  --      6.3130                 6.3673                 6.3645
 IR Inten    --     73.8911                40.8724                67.8794

                     85                     86                     87
                      A                      A                      A
 Frequencies --   3134.7703              3141.2493              3143.1791
 Red. masses --      1.0980                 1.0967                 1.0999
 Frc consts  --      6.3570                 6.3759                 6.4026
 IR Inten    --     48.0708                22.1934                19.4916

 - Thermochemistry -
 -------------------
 Temperature   298.150 Kelvin.  Pressure   1.00000 Atm.
 Atom     1 has atomic number  6 and mass  12.00000

 Molecular mass:   186.12559 amu.
 Principal axes and moments of inertia in atomic units:
                           1         2         3
     Eigenvalues --   907.583554276.512564537.28511
           X            0.99989   0.01480   0.00190
           Y           -0.01476   0.99971  -0.01909
           Z           -0.00218   0.01906   0.99982
 This molecule is an asymmetric top.
 Rotational symmetry number  1.
 Warning -- assumption of classical behavior for rotation
           may cause significant error
 Rotational temperatures (Kelvin)      0.09543     0.02025     0.01909
 Rotational constants (GHZ):           1.98851     0.42201     0.39776
 Zero-point vibrational energy     737587.6 (Joules/Mol)
                                  176.28766 (Kcal/Mol)
 Warning -- explicit consideration of  17 degrees of freedom as
           vibrations may cause significant error
 Vibrational temperatures:     67.12    90.52   138.02   166.78   266.88
          (Kelvin)            304.99   336.38   395.28   449.76   530.08
                              563.32   629.12   641.42   666.40   772.20
                              841.87   855.97   961.13  1029.78  1169.05
                             1198.53  1209.20  1244.73  1286.92  1312.39
                             1323.16  1332.34  1339.20  1383.65  1414.39
                             1489.81  1508.94  1528.60  1534.33  1544.67
                             1553.80  1632.30  1650.51  1667.87  1686.45
                             1707.95  1744.56  1755.35  1775.40  1800.66
                             1854.64  1856.98  1899.85  1913.92  1935.88
                             1958.18  1969.44  1980.87  1996.33  2000.00
                             2009.03  2015.58  2029.79  2046.90  2053.58
                             2062.03  2122.69  2132.37  2149.86  2151.17
                             2156.99  2164.89  2169.24  2184.55  4354.09
                             4375.25  4384.10  4388.74  4406.92  4418.19
                             4420.29  4428.24  4430.77  4478.73  4482.75
                             4485.35  4487.99  4503.01  4509.72  4510.24
                             4519.56  4522.33

 Zero-point correction=                           0.280932 (Hartree/Particle)
 Thermal correction to Energy=                    0.292689
 Thermal correction to Enthalpy=                  0.293633
 Thermal correction to Gibbs Free Energy=         0.242625
 Sum of electronic and zero-point Energies=           -617.214781
 Sum of electronic and thermal Energies=              -617.203025
 Sum of electronic and thermal Enthalpies=            -617.202081
 Sum of electronic and thermal Free Energies=         -617.253089

                     E (Thermal)             CV                S
                      KCal/Mol        Cal/Mol-Kelvin    Cal/Mol-Kelvin
 Total                  183.665             46.587            107.355
 Electronic               0.000              0.000              0.000
 Translational            0.889              2.981             41.570
 Rotational               0.889              2.981             31.244
 Vibrational            181.887             40.626             34.542
 Vibration     1          0.595              1.979              4.955
 Vibration     2          0.597              1.972              4.364
 Vibration     3          0.603              1.952              3.535
 Vibration     4          0.608              1.936              3.167
 Vibration     5          0.632              1.860              2.272
 Vibration     6          0.643              1.823              2.027
 Vibration     7          0.654              1.789              1.850
 Vibration     8          0.677              1.720              1.566
 Vibration     9          0.701              1.650              1.349
 Vibration    10          0.741              1.537              1.086
 Vibration    11          0.759              1.488              0.994
 Vibration    12          0.798              1.389              0.835
 Vibration    13          0.805              1.370              0.809
 Vibration    14          0.821              1.332              0.757
 Vibration    15          0.892              1.169              0.572
 Vibration    16          0.942              1.064              0.476
 Vibration    17          0.953              1.043              0.458

                           ! Non-Optimized Parameters !
 Normal termination of Gaussian 16 at Sun Nov  4 22:50:58 2018.
