 Gaussian 16, Revision A.03,
 Gaussian 16:  ES64L-G16RevA.03 25-Dec-2016

 ----------------------------------------------------------------------
 #M062X/6-311++G(2d,2p) opt=ModRedundant freq=noraman SCRF=(Solvent=Wat
 er)
 ----------------------------------------------------------------------

 ----------------------------
 D_a1-4_2SO_PSI.inp_extract_2
 ----------------------------
 Symbolic Z-matrix:
 Charge =  0 Multiplicity = 1

 SCF Done:  E(RM062X) =  -617.493901561     A.U. after   12 cycles
 SCF Done:  E(RM062X) =  -617.495451932     A.U. after   11 cycles
 SCF Done:  E(RM062X) =  -617.495557365     A.U. after    9 cycles
 SCF Done:  E(RM062X) =  -617.495571668     A.U. after    9 cycles
 SCF Done:  E(RM062X) =  -617.495573609     A.U. after    8 cycles
 SCF Done:  E(RM062X) =  -617.495574341     A.U. after    8 cycles
 SCF Done:  E(RM062X) =  -617.495574565     A.U. after    8 cycles
 Optimization completed.
    -- Stationary point found.
 Normal termination of Gaussian 16 at Sun Nov  4 21:53:55 2018.

 ----------------------------------------------------------------------
 #N Geom=AllCheck Guess=TCheck SCRF=Check GenChk RM062X/6-311++G(2d,2p)
  Freq
 ----------------------------------------------------------------------

 Structure from the checkpoint file:  "D_a1-4_2SO_PSI.inp_extract_2.chk"
 ----------------------------
 D_a1-4_2SO_PSI.inp_extract_2
 ----------------------------
 Charge =  0 Multiplicity = 1

                         Standard orientation:
 ---------------------------------------------------------------------
 Center     Atomic      Atomic             Coordinates (Angstroms)
 Number     Number       Type             X           Y           Z
 ---------------------------------------------------------------------
      1          6           0        1.006449    0.233216   -0.457123
      2          6           0        3.707080   -0.511540    0.483026
      3          8           0       -1.739765   -0.154270   -1.333869
      4          6           0        1.549373   -1.170639   -0.168498
      5          6           0        2.058607    1.271132   -0.069297
      6          8           0       -0.189384    0.471664    0.286135
      7          6           0       -2.373011    1.380587    0.442585
      8          6           0       -2.995192    0.227693    1.227725
      9          6           0       -1.283244    0.883429   -0.492744
     10          6           0       -3.455126   -0.854152    0.252679
     11          6           0       -2.291917   -1.268813   -0.631546
     12          6           0        3.444565    0.721369   -0.394033
     13          8           0        2.494676   -1.147300    0.884632
     14          1           0        0.778994    0.298755   -1.523368
     15          1           0        4.338814   -1.235160   -0.040536
     16          1           0        4.203662   -0.223577    1.408002
     17          1           0        0.738227   -1.824558    0.142276
     18          1           0        2.007744   -1.591093   -1.069794
     19          1           0        1.976320    1.447811    1.004311
     20          1           0        1.865484    2.214426   -0.578075
     21          1           0       -1.949750    2.136918    1.102101
     22          1           0       -3.137283    1.860788   -0.171192
     23          1           0       -2.255839   -0.190960    1.913535
     24          1           0       -3.828228    0.590148    1.828927
     25          1           0       -0.967738    1.671792   -1.180690
     26          1           0       -3.833812   -1.728998    0.781922
     27          1           0       -4.262686   -0.469256   -0.374750
     28          1           0       -2.600895   -1.973867   -1.399872
     29          1           0       -1.513503   -1.738828   -0.024676
     30          1           0        3.491500    0.455948   -1.451881
     31          1           0        4.219265    1.465253   -0.218066
 ---------------------------------------------------------------------

 SCF Done:  E(RM062X) =  -617.495574565     A.U. after    1 cycles

 The electronic state is 1-A.
 Alpha  occ. eigenvalues --  -19.63001 -19.62997 -19.62790 -10.63516 -10.58740
 Alpha  occ. eigenvalues --  -10.58041 -10.58002 -10.57809 -10.53344 -10.53147
 Alpha  occ. eigenvalues --  -10.53087 -10.53014 -10.52883  -1.19980  -1.16365
 Alpha  occ. eigenvalues --   -1.13252  -0.90913  -0.89697  -0.87089  -0.84295
 Alpha  occ. eigenvalues --   -0.74727  -0.74352  -0.72954  -0.71220  -0.64681
 Alpha  occ. eigenvalues --   -0.62887  -0.59739  -0.59682  -0.57548  -0.56284
 Alpha  occ. eigenvalues --   -0.54693  -0.52945  -0.52693  -0.50249  -0.49600
 Alpha  occ. eigenvalues --   -0.47029  -0.46708  -0.45917  -0.45159  -0.44654
 Alpha  occ. eigenvalues --   -0.43831  -0.42568  -0.42166  -0.40893  -0.39482
 Alpha  occ. eigenvalues --   -0.38410  -0.37118  -0.36102  -0.35267  -0.33424
 Alpha  occ. eigenvalues --   -0.31831
 Alpha virt. eigenvalues --   -0.00120   0.00753   0.00907   0.01036   0.02195
 Alpha virt. eigenvalues --    0.02435   0.02592   0.03369   0.03598   0.04421
 Alpha virt. eigenvalues --    0.04463   0.04685   0.05428   0.05872   0.07118

 Mulliken charges:
               1
     1  C   -0.002770
     2  C   -0.231631
     3  O   -0.286552
     4  C   -0.421605
     5  C   -0.172709
     6  O   -0.252916
     7  C   -0.403062
     8  C   -0.298646
     9  C   -0.092318
    10  C   -0.365956
    11  C   -0.097178
    12  C   -0.335136
    13  O   -0.324703
    14  H    0.228412
    15  H    0.167754
    16  H    0.174930
    17  H    0.231135
    18  H    0.169147
    19  H    0.195192
    20  H    0.157581
    21  H    0.179837
    22  H    0.187792
    23  H    0.177922
    24  H    0.184028
    25  H    0.235824
    26  H    0.172156
    27  H    0.163585
    28  H    0.209138
    29  H    0.096673
    30  H    0.179961
    31  H    0.174116
 Sum of Mulliken charges =  -0.00000

 Dipole moment (field-independent basis, Debye):
    X=              0.1741    Y=              1.0679    Z=             -1.3093  Tot=              1.6985
 Quadrupole moment (field-independent basis, Debye-Ang):
   XX=            -69.5304   YY=            -77.5623   ZZ=            -85.0475
   XY=              4.1710   XZ=             -6.6948   YZ=              1.7588

  Exact polarizability: 175.446   1.960 158.710  -0.541   1.020 149.363
 Approx polarizability: 146.875   1.299 141.529   0.908  -0.232 141.909

 ******    1 imaginary frequencies (negative Signs) ******

                      1                      2                      3
                      A                      A                      A
 Frequencies --    -33.0274                56.6820                62.9803
 Red. masses --      3.7898                 3.1324                 4.0253
 Frc consts  --      0.0024                 0.0059                 0.0094
 IR Inten    --      0.7265                 2.3830                 3.1708

                      4                      5                      6
                      A                      A                      A
 Frequencies --    114.1456               170.3606               212.3213
 Red. masses --      3.0901                 2.9754                 2.0202
 Frc consts  --      0.0237                 0.0509                 0.0537
 IR Inten    --      2.4644                 2.6946                 4.1672

                      7                      8                      9
                      A                      A                      A
 Frequencies --    237.9637               284.6310               291.2990
 Red. masses --      4.0699                 2.0849                 2.8145
 Frc consts  --      0.1358                 0.0995                 0.1407
 IR Inten    --      3.4059                 4.6613                 4.4843

                     10                     11                     12
                      A                      A                      A
 Frequencies --    357.1708               392.6637               432.0244
 Red. masses --      1.8331                 2.9540                 2.5079
 Frc consts  --      0.1378                 0.2684                 0.2758
 IR Inten    --      3.8856                15.3595                 6.9924

                     13                     14                     15
                      A                      A                      A
 Frequencies --    437.8385               462.6581               533.0085
 Red. masses --      3.1951                 3.6312                 2.4632
 Frc consts  --      0.3609                 0.4580                 0.4123
 IR Inten    --      7.1318                 0.9862                 2.5589

                     16                     17                     18
                      A                      A                      A
 Frequencies --    555.1592               599.0803               663.8860
 Red. masses --      3.3028                 3.1242                 2.2340
 Frc consts  --      0.5997                 0.6606                 0.5801
 IR Inten    --     10.8135                 6.4708                13.3180

                     19                     20                     21
                      A                      A                      A
 Frequencies --    709.8364               823.2238               830.9817
 Red. masses --      2.9549                 1.9146                 1.6246
 Frc consts  --      0.8772                 0.7645                 0.6610
 IR Inten    --      2.1290                11.0456                 0.4262

                     22                     23                     24
                      A                      A                      A
 Frequencies --    839.8812               866.2439               893.5144
 Red. masses --      3.0569                 1.9784                 2.3909
 Frc consts  --      1.2705                 0.8747                 1.1246
 IR Inten    --      9.7747                 5.7761                22.8969

                     25                     26                     27
                      A                      A                      A
 Frequencies --    905.0366               913.8138               920.2312
 Red. masses --      2.4392                 2.4780                 2.0950
 Frc consts  --      1.1772                 1.2192                 1.0453
 IR Inten    --      8.6257                20.1442                52.8365

                     28                     29                     30
                      A                      A                      A
 Frequencies --    939.6851               949.3014               989.0385
 Red. masses --      1.9666                 1.6111                 1.8297
 Frc consts  --      1.0231                 0.8554                 1.0545
 IR Inten    --     17.0163                 2.5040                23.8726

                     31                     32                     33
                      A                      A                      A
 Frequencies --   1028.9300              1051.2067              1060.1036
 Red. masses --      2.2351                 2.6439                 1.6573
 Frc consts  --      1.3942                 1.7214                 1.0973
 IR Inten    --     43.5681               170.9707                90.2856

                     34                     35                     36
                      A                      A                      A
 Frequencies --   1064.5590              1073.7752              1091.4274
 Red. masses --      1.6583                 2.2050                 2.3891
 Frc consts  --      1.1073                 1.4979                 1.6768
 IR Inten    --     21.7204                44.9511               200.5182

                     37                     38                     39
                      A                      A                      A
 Frequencies --   1125.4786              1146.7067              1152.7310
 Red. masses --      2.1487                 4.3579                 2.2760
 Frc consts  --      1.6036                 3.3762                 1.7819
 IR Inten    --    143.7069                50.6864                24.2111

                     40                     41                     42
                      A                      A                      A
 Frequencies --   1171.9861              1181.3070              1213.6166
 Red. masses --      3.8538                 2.8971                 1.4456
 Frc consts  --      3.1188                 2.3820                 1.2544
 IR Inten    --    152.2775                42.4079                13.2842

                     43                     44                     45
                      A                      A                      A
 Frequencies --   1215.9346              1234.2627              1251.8592
 Red. masses --      1.4102                 1.6245                 1.4797
 Frc consts  --      1.2285                 1.4581                 1.3663
 IR Inten    --      2.0814                58.2697                48.2445

                     46                     47                     48
                      A                      A                      A
 Frequencies --   1286.0723              1290.2225              1320.0097
 Red. masses --      1.2025                 1.2264                 1.1540
 Frc consts  --      1.1718                 1.2028                 1.1847
 IR Inten    --     22.5509                15.5424                12.7928

                     49                     50                     51
                      A                      A                      A
 Frequencies --   1329.3165              1336.8743              1359.0869
 Red. masses --      1.2089                 1.2869                 1.3509
 Frc consts  --      1.2587                 1.3552                 1.4702
 IR Inten    --      8.9104                 5.0110                10.9825

                     52                     53                     54
                      A                      A                      A
 Frequencies --   1362.7727              1377.1378              1384.8679
 Red. masses --      1.5601                 1.3813                 1.2668
 Frc consts  --      1.7070                 1.5435                 1.4315
 IR Inten    --      9.5196                 3.1585                20.9141

                     55                     56                     57
                      A                      A                      A
 Frequencies --   1387.2815              1394.4645              1400.9438
 Red. masses --      1.3983                 1.6947                 1.2587
 Frc consts  --      1.5855                 1.9416                 1.4555
 IR Inten    --      6.1658                21.6241                13.8247

                     58                     59                     60
                      A                      A                      A
 Frequencies --   1405.7477              1423.5524              1432.6253
 Red. masses --      1.3874                 1.3432                 1.3802
 Frc consts  --      1.6153                 1.6038                 1.6691
 IR Inten    --     14.4986                 5.3277                20.0366

                     61                     62                     63
                      A                      A                      A
 Frequencies --   1444.9548              1475.2515              1482.7022
 Red. masses --      1.3201                 1.1066                 1.0872
 Frc consts  --      1.6239                 1.4189                 1.4083
 IR Inten    --      0.5986                 5.2702                 8.0124

                     64                     65                     66
                      A                      A                      A
 Frequencies --   1489.8391              1493.3506              1494.9597
 Red. masses --      1.1006                 1.0958                 1.1063
 Frc consts  --      1.4394                 1.4398                 1.4568
 IR Inten    --      2.7287                 6.7132                17.6755

                     67                     68                     69
                      A                      A                      A
 Frequencies --   1502.8861              1508.1695              1517.1103
 Red. masses --      1.0800                 1.0946                 1.0985
 Frc consts  --      1.4373                 1.4669                 1.4896
 IR Inten    --      8.2734                 4.0568                 3.8631

                     70                     71                     72
                      A                      A                      A
 Frequencies --   3036.1536              3041.7732              3058.1704
 Red. masses --      1.0707                 1.0679                 1.0685
 Frc consts  --      5.8152                 5.8213                 5.8876
 IR Inten    --     58.6429                82.3785                45.3282

                     73                     74                     75
                      A                      A                      A
 Frequencies --   3064.4804              3065.0523              3071.9227
 Red. masses --      1.0667                 1.0775                 1.0630
 Frc consts  --      5.9021                 5.9642                 5.9101
 IR Inten    --     52.6465                27.4190                32.0763

                     76                     77                     78
                      A                      A                      A
 Frequencies --   3074.1672              3078.6473              3081.7467
 Red. masses --      1.0692                 1.0774                 1.0667
 Frc consts  --      5.9537                 6.0167                 5.9688
 IR Inten    --     30.8205                 5.3487                66.7686

                     79                     80                     81
                      A                      A                      A
 Frequencies --   3083.1252              3114.0001              3117.0127
 Red. masses --      1.0659                 1.0977                 1.0957
 Frc consts  --      5.9695                 6.2716                 6.2721
 IR Inten    --     64.2183                36.9390                16.7568

                     82                     83                     84
                      A                      A                      A
 Frequencies --   3119.0876              3131.0544              3131.6515
 Red. masses --      1.1026                 1.1035                 1.1027
 Frc consts  --      6.3198                 6.3740                 6.3720
 IR Inten    --     66.5223                35.2959                42.4931

                     85                     86                     87
                      A                      A                      A
 Frequencies --   3134.9370              3136.1239              3147.2066
 Red. masses --      1.1000                 1.0990                 1.0949
 Frc consts  --      6.3692                 6.3687                 6.3894
 IR Inten    --     83.7233                32.5683                22.7335

 - Thermochemistry -
 -------------------
 Temperature   298.150 Kelvin.  Pressure   1.00000 Atm.
 Atom     1 has atomic number  6 and mass  12.00000

 Molecular mass:   186.12559 amu.
 Principal axes and moments of inertia in atomic units:
                           1         2         3
     Eigenvalues --   965.477284305.507604556.50892
           X            0.99990   0.00792  -0.01167
           Y           -0.00754   0.99947   0.03156
           Z            0.01191  -0.03147   0.99943
 This molecule is an asymmetric top.
 Rotational symmetry number  1.
 Warning -- assumption of classical behavior for rotation
           may cause significant error
 Rotational temperatures (Kelvin)      0.08971     0.02012     0.01901
 Rotational constants (GHZ):           1.86927     0.41917     0.39608
    1 imaginary frequencies ignored.
 Zero-point vibrational energy     736272.0 (Joules/Mol)
                                  175.97322 (Kcal/Mol)
 Warning -- explicit consideration of  16 degrees of freedom as
           vibrations may cause significant error
 Vibrational temperatures:     81.55    90.61   164.23   245.11   305.48
          (Kelvin)            342.38   409.52   419.11   513.89   564.96
                              621.59   629.95   665.66   766.88   798.75
                              861.94   955.18  1021.30  1184.44  1195.60
                             1208.40  1246.33  1285.57  1302.15  1314.77
                             1324.01  1352.00  1365.83  1423.01  1480.40
                             1512.45  1525.25  1531.66  1544.92  1570.32
                             1619.31  1649.86  1658.52  1686.23  1699.64
                             1746.12  1749.46  1775.83  1801.15  1850.37
                             1856.34  1899.20  1912.59  1923.46  1955.42
                             1960.73  1981.39  1992.52  1995.99  2006.32
                             2015.65  2022.56  2048.17  2061.23  2078.97
                             2122.56  2133.28  2143.55  2148.60  2150.91
                             2162.32  2169.92  2182.78  4368.35  4376.43
                             4400.03  4409.10  4409.93  4419.81  4423.04
                             4429.49  4433.95  4435.93  4480.35  4484.69
                             4487.67  4504.89  4505.75  4510.48  4512.18
                             4528.13

 Zero-point correction=                           0.280431 (Hartree/Particle)
 Thermal correction to Energy=                    0.291508
 Thermal correction to Enthalpy=                  0.292452
 Thermal correction to Gibbs Free Energy=         0.243094
 Sum of electronic and zero-point Energies=           -617.215143
 Sum of electronic and thermal Energies=              -617.204067
 Sum of electronic and thermal Enthalpies=            -617.203122
 Sum of electronic and thermal Free Energies=         -617.252481

                     E (Thermal)             CV                S
                      KCal/Mol        Cal/Mol-Kelvin    Cal/Mol-Kelvin
 Total                  182.924             44.837            103.884
 Electronic               0.000              0.000              0.000
 Translational            0.889              2.981             41.570
 Rotational               0.889              2.981             31.316
 Vibrational            181.147             38.875             30.998
 Vibration     1          0.596              1.975              4.569
 Vibration     2          0.597              1.972              4.362
 Vibration     3          0.607              1.938              3.197
 Vibration     4          0.625              1.879              2.432
 Vibration     5          0.643              1.822              2.024
 Vibration     6          0.656              1.783              1.818
 Vibration     7          0.683              1.702              1.506
 Vibration     8          0.687              1.690              1.466
 Vibration     9          0.732              1.561              1.134
 Vibration    10          0.760              1.486              0.990
 Vibration    11          0.793              1.400              0.852
 Vibration    12          0.798              1.388              0.833
 Vibration    13          0.820              1.333              0.758
 Vibration    14          0.888              1.177              0.581
 Vibration    15          0.911              1.128              0.534
 Vibration    16          0.957              1.034              0.451

 Optimization completed.
    -- Stationary point found.
 Normal termination of Gaussian 16 at Sun Nov  4 22:48:33 2018.
