 Gaussian 16, Revision A.03,
 Gaussian 16:  ES64L-G16RevA.03 25-Dec-2016

 ----------------------------------------------------------------------
 #M062X/6-311++G(2d,2p) opt=ModRedundant freq=noraman SCRF=(Solvent=Wat
 er)
 ----------------------------------------------------------------------

 -----------------------------
 D_a1-4_2SO_PSI.inp_extract_18
 -----------------------------
 Symbolic Z-matrix:
 Charge =  0 Multiplicity = 1

 SCF Done:  E(RM062X) =  -617.487549871     A.U. after   12 cycles
 SCF Done:  E(RM062X) =  -617.489180334     A.U. after   12 cycles
 SCF Done:  E(RM062X) =  -617.489500026     A.U. after   11 cycles
 SCF Done:  E(RM062X) =  -617.489753879     A.U. after   11 cycles
 SCF Done:  E(RM062X) =  -617.489770749     A.U. after   10 cycles
 SCF Done:  E(RM062X) =  -617.489772612     A.U. after    8 cycles
 SCF Done:  E(RM062X) =  -617.489772908     A.U. after    7 cycles
 SCF Done:  E(RM062X) =  -617.489772979     A.U. after    8 cycles
 SCF Done:  E(RM062X) =  -617.489772994     A.U. after    6 cycles
 Optimization completed.
    -- Stationary point found.
 Normal termination of Gaussian 16 at Sun Nov  4 22:03:40 2018.

 ----------------------------------------------------------------------
 #N Geom=AllCheck Guess=TCheck SCRF=Check GenChk RM062X/6-311++G(2d,2p)
  Freq
 ----------------------------------------------------------------------

 Structure from the checkpoint file:  "D_a1-4_2SO_PSI.inp_extract_18.chk"
 -----------------------------
 D_a1-4_2SO_PSI.inp_extract_18
 -----------------------------
 Charge =  0 Multiplicity = 1

                         Standard orientation:
 ---------------------------------------------------------------------
 Center     Atomic      Atomic             Coordinates (Angstroms)
 Number     Number       Type             X           Y           Z
 ---------------------------------------------------------------------
      1          6           0       -0.967899   -0.019504    0.794053
      2          6           0       -3.630779   -0.005101   -0.490272
      3          8           0        1.399406    1.047666   -0.706155
      4          6           0       -2.050142   -1.107540    0.838984
      5          6           0       -1.436794    1.117053   -0.122159
      6          8           0        0.288759   -0.631993    0.473211
      7          6           0        2.160089   -1.249550   -0.805822
      8          6           0        3.179381   -0.972306    0.298655
      9          6           0        0.975949   -0.298693   -0.702294
     10          6           0        3.555127    0.508941    0.287729
     11          6           0        2.298760    1.361662    0.356420
     12          6           0       -2.948573    1.260708    0.042573
     13          8           0       -2.784194   -1.147701   -0.370404
     14          1           0       -0.844650    0.377186    1.805171
     15          1           0       -4.570847   -0.193760    0.036678
     16          1           0       -3.842343    0.093581   -1.553780
     17          1           0       -1.580786   -2.079813    0.968812
     18          1           0       -2.729433   -0.934544    1.680188
     19          1           0       -1.224736    0.883457   -1.164347
     20          1           0       -0.914651    2.039416    0.117257
     21          1           0        1.795394   -2.275176   -0.768230
     22          1           0        2.620986   -1.091939   -1.782640
     23          1           0        2.747142   -1.230837    1.266998
     24          1           0        4.061960   -1.595883    0.159455
     25          1           0        0.330601   -0.392075   -1.576006
     26          1           0        4.207198    0.756232    1.126054
     27          1           0        4.093516    0.746808   -0.633005
     28          1           0        2.526282    2.419567    0.245416
     29          1           0        1.791926    1.216216    1.315174
     30          1           0       -3.190740    1.414974    1.095741
     31          1           0       -3.319308    2.128795   -0.499350
 ---------------------------------------------------------------------

 SCF Done:  E(RM062X) =  -617.489772994     A.U. after    1 cycles

 The electronic state is 1-A.
 Alpha  occ. eigenvalues --  -19.62791 -19.62784 -19.62656 -10.63354 -10.58978
 Alpha  occ. eigenvalues --  -10.58027 -10.57809 -10.57663 -10.53369 -10.53312
 Alpha  occ. eigenvalues --  -10.52935 -10.52877 -10.52784  -1.19635  -1.16347
 Alpha  occ. eigenvalues --   -1.12910  -0.90874  -0.89472  -0.87177  -0.84229
 Alpha  occ. eigenvalues --   -0.75142  -0.74452  -0.72728  -0.70696  -0.65015
 Alpha  occ. eigenvalues --   -0.61834  -0.60501  -0.58808  -0.57818  -0.55734
 Alpha  occ. eigenvalues --   -0.54088  -0.53609  -0.52366  -0.50293  -0.49178
 Alpha  occ. eigenvalues --   -0.48408  -0.45757  -0.45662  -0.45074  -0.44788
 Alpha  occ. eigenvalues --   -0.44029  -0.42229  -0.41927  -0.40278  -0.39256
 Alpha  occ. eigenvalues --   -0.38306  -0.37675  -0.35967  -0.34908  -0.33319
 Alpha  occ. eigenvalues --   -0.31273
 Alpha virt. eigenvalues --   -0.00157   0.00769   0.00806   0.01156   0.02190
 Alpha virt. eigenvalues --    0.02471   0.02625   0.03290   0.03699   0.04377
 Alpha virt. eigenvalues --    0.04500   0.04892   0.05535   0.05774   0.07081

 Mulliken charges:
               1
     1  C   -0.327125
     2  C   -0.238202
     3  O   -0.251125
     4  C   -0.249687
     5  C   -0.003885
     6  O   -0.246386
     7  C   -0.589680
     8  C   -0.265337
     9  C    0.020065
    10  C   -0.464587
    11  C   -0.034225
    12  C   -0.440165
    13  O   -0.279130
    14  H    0.231708
    15  H    0.171847
    16  H    0.179296
    17  H    0.182184
    18  H    0.179555
    19  H    0.222696
    20  H    0.187644
    21  H    0.182722
    22  H    0.197353
    23  H    0.176888
    24  H    0.182418
    25  H    0.249612
    26  H    0.173330
    27  H    0.160298
    28  H    0.206065
    29  H    0.136898
    30  H    0.190970
    31  H    0.157984
 Sum of Mulliken charges =  -0.00000

 Dipole moment (field-independent basis, Debye):
    X=              0.0395    Y=              1.5973    Z=              1.5017  Tot=              2.1927
 Quadrupole moment (field-independent basis, Debye-Ang):
   XX=            -72.3905   YY=            -82.3633   ZZ=            -78.9762
   XY=             -6.0332   XZ=             -1.4036   YZ=              1.2844

  Exact polarizability: 174.350  -1.442 157.610   0.960   0.675 151.476
 Approx polarizability: 145.250  -0.896 141.913   0.199   0.032 143.667

 ******    1 imaginary frequencies (negative Signs) ******

                      1                      2                      3
                      A                      A                      A
 Frequencies --    -61.1214                55.7223                83.2710
 Red. masses --      3.9459                 3.6917                 3.3862
 Frc consts  --      0.0087                 0.0068                 0.0138
 IR Inten    --      2.2946                 1.5787                 2.0184

                      4                      5                      6
                      A                      A                      A
 Frequencies --    110.4244               185.5639               228.9657
 Red. masses --      3.5471                 2.7808                 3.1471
 Frc consts  --      0.0255                 0.0564                 0.0972
 IR Inten    --      5.3700                 6.1549                 2.9174

                      7                      8                      9
                      A                      A                      A
 Frequencies --    231.0381               267.2528               313.8396
 Red. masses --      2.6088                 2.2449                 2.2796
 Frc consts  --      0.0820                 0.0945                 0.1323
 IR Inten    --      3.2098                 1.2443                 0.4662

                     10                     11                     12
                      A                      A                      A
 Frequencies --    359.5152               387.4466               438.6042
 Red. masses --      2.4407                 2.3283                 2.8195
 Frc consts  --      0.1859                 0.2059                 0.3196
 IR Inten    --      3.8239                24.5244                 4.6935

                     13                     14                     15
                      A                      A                      A
 Frequencies --    447.5030               457.9148               533.7159
 Red. masses --      2.5576                 3.9196                 2.3676
 Frc consts  --      0.3018                 0.4842                 0.3974
 IR Inten    --      0.2761                 3.1876                 5.2448

                     16                     17                     18
                      A                      A                      A
 Frequencies --    580.4458               628.5573               658.9501
 Red. masses --      2.8276                 3.5204                 2.2745
 Frc consts  --      0.5613                 0.8195                 0.5819
 IR Inten    --      2.2052                10.3876                16.9623

                     19                     20                     21
                      A                      A                      A
 Frequencies --    688.8017               801.1817               835.9622
 Red. masses --      3.1113                 2.4453                 1.5192
 Frc consts  --      0.8697                 0.9248                 0.6255
 IR Inten    --      4.5590                 1.7529                 2.7348

                     22                     23                     24
                      A                      A                      A
 Frequencies --    840.5933               861.1302               892.9833
 Red. masses --      3.4625                 1.7444                 2.4281
 Frc consts  --      1.4415                 0.7621                 1.1408
 IR Inten    --      9.5720                 6.6207                18.5872

                     25                     26                     27
                      A                      A                      A
 Frequencies --    911.4823               917.9107               918.3535
 Red. masses --      2.3848                 2.4760                 2.4476
 Frc consts  --      1.1674                 1.2291                 1.2162
 IR Inten    --     34.2019                43.2458                15.5866

                     28                     29                     30
                      A                      A                      A
 Frequencies --    927.3945               964.7364               975.8842
 Red. masses --      1.8194                 1.5962                 1.9349
 Frc consts  --      0.9219                 0.8753                 1.0857
 IR Inten    --     22.1911                 3.9260                32.7717

                     31                     32                     33
                      A                      A                      A
 Frequencies --   1032.8593              1045.3254              1061.5142
 Red. masses --      2.0831                 2.3795                 1.7464
 Frc consts  --      1.3093                 1.5319                 1.1594
 IR Inten    --     24.3698                98.4561               120.1930

                     34                     35                     36
                      A                      A                      A
 Frequencies --   1065.2184              1071.4709              1079.4578
 Red. masses --      1.8411                 1.9396                 2.4146
 Frc consts  --      1.2308                 1.3120                 1.6577
 IR Inten    --     23.7090                23.3312               163.4729

                     37                     38                     39
                      A                      A                      A
 Frequencies --   1132.1878              1144.4327              1152.4637
 Red. masses --      2.5753                 4.5879                 2.1466
 Frc consts  --      1.9450                 3.5403                 1.6798
 IR Inten    --    103.0014               108.4843                17.1724

                     40                     41                     42
                      A                      A                      A
 Frequencies --   1165.4006              1186.9321              1211.0702
 Red. masses --      2.4358                 3.9636                 1.3993
 Frc consts  --      1.9491                 3.2900                 1.2092
 IR Inten    --     39.5382               211.1964                20.9594

                     43                     44                     45
                      A                      A                      A
 Frequencies --   1225.9827              1233.1225              1254.7935
 Red. masses --      1.4211                 1.6295                 1.4382
 Frc consts  --      1.2585                 1.4599                 1.3342
 IR Inten    --      6.7046                46.2363                39.9053

                     46                     47                     48
                      A                      A                      A
 Frequencies --   1287.8207              1289.3091              1319.4421
 Red. masses --      1.2081                 1.2188                 1.1520
 Frc consts  --      1.1805                 1.1937                 1.1816
 IR Inten    --      7.8687                24.3015                 8.2144

                     49                     50                     51
                      A                      A                      A
 Frequencies --   1329.2875              1349.3669              1359.1839
 Red. masses --      1.1939                 1.3268                 1.3627
 Frc consts  --      1.2430                 1.4234                 1.4833
 IR Inten    --     31.2321                13.3190                 5.0254

                     52                     53                     54
                      A                      A                      A
 Frequencies --   1369.3756              1378.1434              1384.0407
 Red. masses --      1.5124                 1.3232                 1.3996
 Frc consts  --      1.6709                 1.4807                 1.5796
 IR Inten    --      1.4777                 0.8911                 5.0411

                     55                     56                     57
                      A                      A                      A
 Frequencies --   1388.4738              1392.8123              1396.0400
 Red. masses --      1.3796                 1.5452                 1.2699
 Frc consts  --      1.5670                 1.7661                 1.4581
 IR Inten    --      4.2360                23.8613                11.8873

                     58                     59                     60
                      A                      A                      A
 Frequencies --   1414.5356              1417.2630              1424.6745
 Red. masses --      1.3276                 1.3631                 1.3463
 Frc consts  --      1.5651                 1.6131                 1.6100
 IR Inten    --      3.5322                12.1824                 8.3141

                     61                     62                     63
                      A                      A                      A
 Frequencies --   1436.0054              1476.8737              1481.9868
 Red. masses --      1.3396                 1.1040                 1.0844
 Frc consts  --      1.6276                 1.4187                 1.4033
 IR Inten    --     24.3363                 4.5354                 7.2055

                     64                     65                     66
                      A                      A                      A
 Frequencies --   1487.3177              1494.8973              1496.4067
 Red. masses --      1.1031                 1.1104                 1.0941
 Frc consts  --      1.4377                 1.4620                 1.4435
 IR Inten    --      3.2775                12.2356                11.7836

                     67                     68                     69
                      A                      A                      A
 Frequencies --   1504.6712              1508.8624              1518.2847
 Red. masses --      1.0762                 1.0931                 1.0991
 Frc consts  --      1.4355                 1.4663                 1.4928
 IR Inten    --      6.6624                 3.6113                 3.9292

                     70                     71                     72
                      A                      A                      A
 Frequencies --   3035.8388              3040.9996              3049.6826
 Red. masses --      1.0714                 1.0679                 1.0694
 Frc consts  --      5.8175                 5.8187                 5.8602
 IR Inten    --     46.8052                78.0223                71.1287

                     73                     74                     75
                      A                      A                      A
 Frequencies --   3059.2756              3061.9115              3074.3533
 Red. masses --      1.0831                 1.0633                 1.0635
 Frc consts  --      5.9725                 5.8732                 5.9226
 IR Inten    --     93.0559                30.8980                29.1000

                     76                     77                     78
                      A                      A                      A
 Frequencies --   3076.1860              3077.6016              3091.6539
 Red. masses --      1.0675                 1.0637                 1.0807
 Frc consts  --      5.9519                 5.9358                 6.0860
 IR Inten    --     36.3783                23.4952                58.2991

                     79                     80                     81
                      A                      A                      A
 Frequencies --   3109.0255              3111.8111              3117.4974
 Red. masses --      1.0668                 1.0980                 1.0933
 Frc consts  --      6.0752                 6.2644                 6.2605
 IR Inten    --     41.4329                34.6661                11.9230

                     82                     83                     84
                      A                      A                      A
 Frequencies --   3119.4627              3131.6014              3134.1949
 Red. masses --      1.1025                 1.1030                 1.0977
 Frc consts  --      6.3209                 6.3731                 6.3530
 IR Inten    --     62.9082                41.8153                40.2389

                     85                     86                     87
                      A                      A                      A
 Frequencies --   3135.0824              3145.3702              3156.3032
 Red. masses --      1.0987                 1.0957                 1.1043
 Frc consts  --      6.3625                 6.3871                 6.4819
 IR Inten    --     76.0295                21.9779                34.7937

 - Thermochemistry -
 -------------------
 Temperature   298.150 Kelvin.  Pressure   1.00000 Atm.
 Atom     1 has atomic number  6 and mass  12.00000

 Molecular mass:   186.12559 amu.
 Principal axes and moments of inertia in atomic units:
                           1         2         3
     Eigenvalues --   929.318284045.049784446.66231
           X            0.99992  -0.01234   0.00018
           Y            0.01233   0.99981   0.01524
           Z           -0.00036  -0.01523   0.99988
 This molecule is an asymmetric top.
 Rotational symmetry number  1.
 Warning -- assumption of classical behavior for rotation
           may cause significant error
 Rotational temperatures (Kelvin)      0.09320     0.02141     0.01948
 Rotational constants (GHZ):           1.94201     0.44616     0.40586
    1 imaginary frequencies ignored.
 Zero-point vibrational energy     736901.5 (Joules/Mol)
                                  176.12367 (Kcal/Mol)
 Warning -- explicit consideration of  15 degrees of freedom as
           vibrations may cause significant error
 Vibrational temperatures:     80.17   119.81   158.88   266.99   329.43
          (Kelvin)            332.41   384.52   451.55   517.26   557.45
                              631.05   643.86   658.84   767.90   835.13
                              904.35   948.08   991.03  1152.72  1202.76
                             1209.43  1238.97  1284.80  1311.42  1320.67
                             1321.31  1334.31  1388.04  1404.08  1486.05
                             1503.99  1527.28  1532.61  1541.61  1553.10
                             1628.97  1646.58  1658.14  1676.75  1707.73
                             1742.46  1763.92  1774.19  1805.37  1852.89
                             1855.03  1898.38  1912.55  1941.44  1955.56
                             1970.23  1982.84  1991.33  1997.70  2003.95
                             2008.59  2035.20  2039.13  2049.79  2066.09
                             2124.89  2132.25  2139.92  2150.82  2153.00
                             2164.89  2170.92  2184.47  4367.89  4375.32
                             4387.81  4401.62  4405.41  4423.31  4425.95
                             4427.98  4448.20  4473.19  4477.20  4485.38
                             4488.21  4505.68  4509.41  4510.68  4525.49
                             4541.22

 Zero-point correction=                           0.280671 (Hartree/Particle)
 Thermal correction to Energy=                    0.291649
 Thermal correction to Enthalpy=                  0.292593
 Thermal correction to Gibbs Free Energy=         0.243668
 Sum of electronic and zero-point Energies=           -617.209102
 Sum of electronic and thermal Energies=              -617.198124
 Sum of electronic and thermal Enthalpies=            -617.197180
 Sum of electronic and thermal Free Energies=         -617.246105

                     E (Thermal)             CV                S
                      KCal/Mol        Cal/Mol-Kelvin    Cal/Mol-Kelvin
 Total                  183.012             44.734            102.971
 Electronic               0.000              0.000              0.000
 Translational            0.889              2.981             41.570
 Rotational               0.889              2.981             31.192
 Vibrational            181.235             38.772             30.209
 Vibration     1          0.596              1.975              4.603
 Vibration     2          0.600              1.961              3.812
 Vibration     3          0.606              1.941              3.261
 Vibration     4          0.632              1.860              2.272
 Vibration     5          0.652              1.797              1.887
 Vibration     6          0.653              1.794              1.871
 Vibration     7          0.672              1.733              1.614
 Vibration     8          0.702              1.647              1.342
 Vibration     9          0.734              1.556              1.124
 Vibration    10          0.756              1.497              1.010
 Vibration    11          0.799              1.386              0.831
 Vibration    12          0.807              1.366              0.803
 Vibration    13          0.816              1.343              0.772
 Vibration    14          0.889              1.175              0.579
 Vibration    15          0.937              1.074              0.485

 Optimization completed.
    -- Stationary point found.
 Normal termination of Gaussian 16 at Sun Nov  4 23:04:08 2018.
