 Gaussian 16, Revision A.03,
 Gaussian 16:  ES64L-G16RevA.03 25-Dec-2016

 ----------------------------------------------------------------------
 #M062X/6-311++G(2d,2p) opt=ModRedundant freq=noraman SCRF=(Solvent=Wat
 er)
 ----------------------------------------------------------------------

 -----------------------------
 2SO_1_e4_D_PHI.inp_extract_21
 -----------------------------
 Symbolic Z-matrix:
 Charge =  0 Multiplicity = 1

 SCF Done:  E(RM062X) =  -617.492539140     A.U. after   12 cycles
 SCF Done:  E(RM062X) =  -617.493905700     A.U. after   10 cycles
 SCF Done:  E(RM062X) =  -617.494038403     A.U. after   10 cycles
 SCF Done:  E(RM062X) =  -617.494074265     A.U. after    9 cycles
 SCF Done:  E(RM062X) =  -617.494080831     A.U. after    8 cycles
 SCF Done:  E(RM062X) =  -617.494086567     A.U. after    8 cycles
 SCF Done:  E(RM062X) =  -617.494087157     A.U. after    8 cycles
 SCF Done:  E(RM062X) =  -617.494087352     A.U. after    7 cycles
 Optimization completed.
    -- Stationary point found.
 Normal termination of Gaussian 16 at Mon Nov  5 00:09:42 2018.

 ----------------------------------------------------------------------
 #N Geom=AllCheck Guess=TCheck SCRF=Check GenChk RM062X/6-311++G(2d,2p)
  Freq
 ----------------------------------------------------------------------

 Structure from the checkpoint file:  "2SO_1_e4_D_PHI.inp_extract_21.chk"
 -----------------------------
 2SO_1_e4_D_PHI.inp_extract_21
 -----------------------------
 Charge =  0 Multiplicity = 1

                         Standard orientation:
 ---------------------------------------------------------------------
 Center     Atomic      Atomic             Coordinates (Angstroms)
 Number     Number       Type             X           Y           Z
 ---------------------------------------------------------------------
      1          6           0       -1.195877   -0.285065    0.154018
      2          6           0        4.042532    0.167383   -0.286059
      3          6           0        1.162056    0.035970    0.387789
      4          6           0        2.876524    0.808638   -1.044169
      5          6           0        3.502241   -0.659857    0.892993
      6          6           0       -1.727427    1.135166    0.297067
      7          6           0       -2.123970   -1.098395   -0.736432
      8          6           0       -3.996211    0.195244   -0.149964
      9          8           0       -3.440590   -1.112419   -0.220317
     10          6           0       -3.181239    1.091240    0.768872
     11          8           0        0.085566   -0.326576   -0.454225
     12          6           0        2.099802   -1.157359    0.556135
     13          8           0        1.828685    1.155228   -0.141526
     14          1           0       -1.155762   -0.767811    1.137487
     15          1           0        4.726857    0.935042    0.072553
     16          1           0        4.598892   -0.468875   -0.975654
     17          1           0        0.774637    0.362031    1.354659
     18          1           0        3.173374    1.731424   -1.535589
     19          1           0        2.487094    0.133617   -1.809608
     20          1           0        3.451474   -0.038816    1.788755
     21          1           0        4.165898   -1.492105    1.119188
     22          1           0       -1.108125    1.711707    0.985140
     23          1           0       -1.668091    1.616481   -0.683142
     24          1           0       -1.786587   -2.131448   -0.791936
     25          1           0       -2.115448   -0.669557   -1.746517
     26          1           0       -4.033464    0.624949   -1.158438
     27          1           0       -5.014870    0.073752    0.211727
     28          1           0       -3.613208    2.091924    0.781264
     29          1           0       -3.233167    0.696796    1.785943
     30          1           0        2.114082   -1.724873   -0.376372
     31          1           0        1.696527   -1.811893    1.327591
 ---------------------------------------------------------------------

 SCF Done:  E(RM062X) =  -617.494087352     A.U. after    1 cycles

 The electronic state is 1-A.
 Alpha  occ. eigenvalues --  -19.63222 -19.63107 -19.63105 -10.63720 -10.58965
 Alpha  occ. eigenvalues --  -10.58184 -10.58106 -10.57992 -10.53340 -10.53232
 Alpha  occ. eigenvalues --  -10.53229 -10.53177 -10.52953  -1.19913  -1.16758
 Alpha  occ. eigenvalues --   -1.13894  -0.90668  -0.89873  -0.87417  -0.84296
 Alpha  occ. eigenvalues --   -0.74913  -0.74580  -0.73100  -0.70633  -0.66016
 Alpha  occ. eigenvalues --   -0.62686  -0.60687  -0.58874  -0.57595  -0.57175
 Alpha  occ. eigenvalues --   -0.55217  -0.53179  -0.51781  -0.50473  -0.49406
 Alpha  occ. eigenvalues --   -0.47954  -0.46779  -0.45973  -0.45748  -0.44512
 Alpha  occ. eigenvalues --   -0.43582  -0.43414  -0.41133  -0.40550  -0.39867
 Alpha  occ. eigenvalues --   -0.38524  -0.37893  -0.36786  -0.34540  -0.33624
 Alpha  occ. eigenvalues --   -0.32032
 Alpha virt. eigenvalues --   -0.00066   0.00760   0.00788   0.01058   0.02131
 Alpha virt. eigenvalues --    0.02341   0.02535   0.03509   0.03636   0.04223
 Alpha virt. eigenvalues --    0.04480   0.04630   0.05658   0.05692   0.06657

 Mulliken charges:
               1
     1  C   -0.132819
     2  C   -0.491157
     3  C   -0.182670
     4  C   -0.049440
     5  C   -0.212191
     6  C   -0.205396
     7  C   -0.261911
     8  C   -0.210506
     9  O   -0.336765
    10  C   -0.355242
    11  O   -0.299172
    12  C   -0.308949
    13  O   -0.289237
    14  H    0.244320
    15  H    0.160095
    16  H    0.144601
    17  H    0.260611
    18  H    0.204514
    19  H    0.152704
    20  H    0.154287
    21  H    0.193161
    22  H    0.163795
    23  H    0.219832
    24  H    0.196722
    25  H    0.191199
    26  H    0.141261
    27  H    0.206532
    28  H    0.176528
    29  H    0.165909
    30  H    0.212354
    31  H    0.147030
 Sum of Mulliken charges =  -0.00000

 Dipole moment (field-independent basis, Debye):
    X=              1.3842    Y=              0.3592    Z=              1.0402  Tot=              1.7683
 Quadrupole moment (field-independent basis, Debye-Ang):
   XX=            -74.5714   YY=            -83.2423   ZZ=            -78.0010
   XY=            -10.2226   XZ=             -1.5120   YZ=             -0.7223

  Exact polarizability: 179.603  -0.745 153.738  -2.985  -1.276 152.675
 Approx polarizability: 147.974   0.324 141.159  -3.055  -0.493 142.283

 ******    1 imaginary frequencies (negative Signs) ******

                      1                      2                      3
                      A                      A                      A
 Frequencies --    -38.8610                54.5695                56.1599
 Red. masses --      4.3874                 3.1590                 3.6941
 Frc consts  --      0.0039                 0.0055                 0.0069
 IR Inten    --      2.3956                 0.6469                 3.2430

                      4                      5                      6
                      A                      A                      A
 Frequencies --    118.4647               180.0075               213.9646
 Red. masses --      2.9765                 2.0725                 2.8303
 Frc consts  --      0.0246                 0.0396                 0.0763
 IR Inten    --      2.1550                 0.8587                 1.5494

                      7                      8                      9
                      A                      A                      A
 Frequencies --    249.0745               262.2858               287.1295
 Red. masses --      2.0412                 3.0216                 3.5369
 Frc consts  --      0.0746                 0.1225                 0.1718
 IR Inten    --      5.4881                 0.1879                 5.6371

                     10                     11                     12
                      A                      A                      A
 Frequencies --    351.5260               398.7679               439.1365
 Red. masses --      2.4934                 2.3713                 3.2861
 Frc consts  --      0.1815                 0.2222                 0.3734
 IR Inten    --      2.5760                15.4700                 2.8011

                     13                     14                     15
                      A                      A                      A
 Frequencies --    460.3479               468.1415               501.5011
 Red. masses --      3.5430                 2.8981                 4.8007
 Frc consts  --      0.4424                 0.3742                 0.7114
 IR Inten    --      2.1944                 1.6904                20.5782

                     16                     17                     18
                      A                      A                      A
 Frequencies --    525.5966               568.5849               630.3482
 Red. masses --      2.9414                 2.4818                 1.9555
 Frc consts  --      0.4788                 0.4727                 0.4578
 IR Inten    --      0.8231                 4.2409                 8.4356

                     19                     20                     21
                      A                      A                      A
 Frequencies --    670.3483               781.2502               828.1911
 Red. masses --      3.4167                 1.2923                 2.2439
 Frc consts  --      0.9046                 0.4647                 0.9068
 IR Inten    --     11.9238                 4.7504                 0.5771

                     22                     23                     24
                      A                      A                      A
 Frequencies --    846.8017               875.2307               895.9713
 Red. masses --      2.4439                 1.4057                 2.4437
 Frc consts  --      1.0325                 0.6344                 1.1558
 IR Inten    --      3.5951                13.3110                13.2024

                     25                     26                     27
                      A                      A                      A
 Frequencies --    899.7963               919.1712               942.3158
 Red. masses --      2.4561                 2.2694                 2.1837
 Frc consts  --      1.1716                 1.1297                 1.1424
 IR Inten    --      1.4083                52.6208                41.2688

                     28                     29                     30
                      A                      A                      A
 Frequencies --    967.1934               988.9409               996.6288
 Red. masses --      1.8724                 2.3010                 1.4949
 Frc consts  --      1.0320                 1.3259                 0.8749
 IR Inten    --      7.3403                20.8232                11.0139

                     31                     32                     33
                      A                      A                      A
 Frequencies --   1009.0445              1055.4421              1069.5480
 Red. masses --      1.9061                 1.6961                 3.4329
 Frc consts  --      1.1434                 1.1132                 2.3137
 IR Inten    --     10.3855                 5.2962               141.0967

                     34                     35                     36
                      A                      A                      A
 Frequencies --   1075.9384              1087.7714              1121.3187
 Red. masses --      2.0599                 2.1554                 4.1984
 Frc consts  --      1.4050                 1.5026                 3.1102
 IR Inten    --    269.5679                36.4928               324.2018

                     37                     38                     39
                      A                      A                      A
 Frequencies --   1149.1408              1151.1858              1160.7745
 Red. masses --      3.4406                 2.7679                 2.6995
 Frc consts  --      2.6769                 2.1612                 2.1430
 IR Inten    --     40.2690                71.0831               164.9060

                     40                     41                     42
                      A                      A                      A
 Frequencies --   1175.6052              1188.3420              1209.5446
 Red. masses --      2.3040                 2.4048                 1.4769
 Frc consts  --      1.8761                 2.0008                 1.2731
 IR Inten    --     21.1862                42.7103                27.2696

                     43                     44                     45
                      A                      A                      A
 Frequencies --   1216.6205              1246.8897              1251.0550
 Red. masses --      1.4986                 1.5549                 1.6286
 Frc consts  --      1.3069                 1.4243                 1.5018
 IR Inten    --     14.1924                23.3897                56.7472

                     46                     47                     48
                      A                      A                      A
 Frequencies --   1288.8551              1302.7869              1308.0763
 Red. masses --      1.2098                 1.1849                 1.1740
 Frc consts  --      1.1841                 1.1849                 1.1836
 IR Inten    --      9.0140                11.9567                 7.0310

                     49                     50                     51
                      A                      A                      A
 Frequencies --   1331.6812              1340.6553              1348.2969
 Red. masses --      1.2865                 1.2623                 1.2983
 Frc consts  --      1.3442                 1.3367                 1.3905
 IR Inten    --     11.0618                 1.7927                 2.6027

                     52                     53                     54
                      A                      A                      A
 Frequencies --   1354.0659              1365.6537              1372.3533
 Red. masses --      1.2175                 1.3938                 1.4538
 Frc consts  --      1.3152                 1.5315                 1.6132
 IR Inten    --     15.8472                 2.6253                 1.7460

                     55                     56                     57
                      A                      A                      A
 Frequencies --   1382.3867              1399.0570              1400.7304
 Red. masses --      1.4410                 1.5218                 1.2901
 Frc consts  --      1.6224                 1.7550                 1.4914
 IR Inten    --      9.8991                26.8008                 4.8975

                     58                     59                     60
                      A                      A                      A
 Frequencies --   1410.4379              1417.3789              1427.7229
 Red. masses --      1.3987                 1.4220                 1.3656
 Frc consts  --      1.6394                 1.6832                 1.6400
 IR Inten    --     29.0173                26.1914                 0.4796

                     61                     62                     63
                      A                      A                      A
 Frequencies --   1448.3180              1480.7999              1486.7129
 Red. masses --      1.3219                 1.0932                 1.0786
 Frc consts  --      1.6337                 1.4124                 1.4047
 IR Inten    --      7.9411                 7.5238                 2.5490

                     64                     65                     66
                      A                      A                      A
 Frequencies --   1493.1196              1493.4225              1502.6752
 Red. masses --      1.1135                 1.0971                 1.0863
 Frc consts  --      1.4626                 1.4416                 1.4452
 IR Inten    --     17.7937                 2.9828                 0.5850

                     67                     68                     69
                      A                      A                      A
 Frequencies --   1503.8715              1515.7063              1525.3984
 Red. masses --      1.0972                 1.1011                 1.0866
 Frc consts  --      1.4620                 1.4904                 1.4896
 IR Inten    --     10.4006                 9.4407                 4.5802

                     70                     71                     72
                      A                      A                      A
 Frequencies --   3018.4580              3021.8842              3031.4392
 Red. masses --      1.0714                 1.0706                 1.0802
 Frc consts  --      5.7513                 5.7603                 5.8487
 IR Inten    --     20.4318                81.2674                71.5995

                     73                     74                     75
                      A                      A                      A
 Frequencies --   3059.3739              3063.0108              3070.4008
 Red. masses --      1.0639                 1.0692                 1.0621
 Frc consts  --      5.8672                 5.9101                 5.8996
 IR Inten    --     40.0731                42.7725                39.9047

                     76                     77                     78
                      A                      A                      A
 Frequencies --   3074.6281              3079.5118              3081.4472
 Red. masses --      1.0663                 1.0635                 1.0654
 Frc consts  --      5.9391                 5.9422                 5.9604
 IR Inten    --     16.6114                33.3367                44.6124

                     79                     80                     81
                      A                      A                      A
 Frequencies --   3084.9970              3111.6650              3117.7995
 Red. masses --      1.0826                 1.0995                 1.0989
 Frc consts  --      6.0705                 6.2726                 6.2938
 IR Inten    --     33.2913                42.8169                29.4090

                     82                     83                     84
                      A                      A                      A
 Frequencies --   3120.4441              3129.9346              3131.3917
 Red. masses --      1.1026                 1.1003                 1.1028
 Frc consts  --      6.3256                 6.3507                 6.3712
 IR Inten    --     52.0048                41.2080                53.3136

                     85                     86                     87
                      A                      A                      A
 Frequencies --   3133.7432              3136.2159              3145.2506
 Red. masses --      1.0947                 1.0954                 1.1001
 Frc consts  --      6.3340                 6.3482                 6.4120
 IR Inten    --     47.3289                38.5678                49.1783

 - Thermochemistry -
 -------------------
 Temperature   298.150 Kelvin.  Pressure   1.00000 Atm.
 Atom     1 has atomic number  6 and mass  12.00000

 Molecular mass:   186.12559 amu.
 Principal axes and moments of inertia in atomic units:
                           1         2         3
     Eigenvalues --   794.439725094.394715350.83309
           X            0.99991  -0.01306  -0.00090
           Y            0.01305   0.99988  -0.00857
           Z            0.00101   0.00855   0.99996
 This molecule is an asymmetric top.
 Rotational symmetry number  1.
 Warning -- assumption of classical behavior for rotation
           may cause significant error
 Rotational temperatures (Kelvin)      0.10903     0.01700     0.01619
 Rotational constants (GHZ):           2.27172     0.35426     0.33728
    1 imaginary frequencies ignored.
 Zero-point vibrational energy     736046.9 (Joules/Mol)
                                  175.91942 (Kcal/Mol)
 Warning -- explicit consideration of  16 degrees of freedom as
           vibrations may cause significant error
 Vibrational temperatures:     78.51    80.80   170.44   258.99   307.85
          (Kelvin)            358.36   377.37   413.12   505.77   573.74
                              631.82   662.34   673.55   721.55   756.22
                              818.07   906.93   964.48  1124.04  1191.58
                             1218.36  1259.26  1289.10  1294.61  1322.48
                             1355.78  1391.58  1422.87  1433.93  1451.79
                             1518.55  1538.84  1548.04  1565.06  1613.33
                             1653.36  1656.30  1670.10  1691.43  1709.76
                             1740.26  1750.45  1794.00  1799.99  1854.37
                             1874.42  1882.03  1915.99  1928.90  1939.90
                             1948.20  1964.87  1974.51  1988.95  2012.93
                             2015.34  2029.31  2039.29  2054.17  2083.81
                             2130.54  2139.05  2148.27  2148.70  2162.01
                             2163.74  2180.76  2194.71  4342.89  4347.82
                             4361.56  4401.76  4406.99  4417.62  4423.70
                             4430.73  4433.52  4438.62  4476.99  4485.82
                             4489.62  4503.28  4505.37  4508.76  4512.32
                             4525.31

 Zero-point correction=                           0.280345 (Hartree/Particle)
 Thermal correction to Energy=                    0.291479
 Thermal correction to Enthalpy=                  0.292424
 Thermal correction to Gibbs Free Energy=         0.242840
 Sum of electronic and zero-point Energies=           -617.213742
 Sum of electronic and thermal Energies=              -617.202608
 Sum of electronic and thermal Enthalpies=            -617.201664
 Sum of electronic and thermal Free Energies=         -617.251248

                     E (Thermal)             CV                S
                      KCal/Mol        Cal/Mol-Kelvin    Cal/Mol-Kelvin
 Total                  182.906             44.972            104.358
 Electronic               0.000              0.000              0.000
 Translational            0.889              2.981             41.570
 Rotational               0.889              2.981             31.449
 Vibrational            181.129             39.010             31.339
 Vibration     1          0.596              1.976              4.645
 Vibration     2          0.596              1.975              4.588
 Vibration     3          0.609              1.934              3.125
 Vibration     4          0.629              1.867              2.328
 Vibration     5          0.644              1.820              2.010
 Vibration     6          0.662              1.764              1.737
 Vibration     7          0.670              1.742              1.647
 Vibration     8          0.684              1.698              1.491
 Vibration     9          0.728              1.572              1.159
 Vibration    10          0.765              1.473              0.967
 Vibration    11          0.799              1.385              0.829
 Vibration    12          0.818              1.338              0.765
 Vibration    13          0.825              1.321              0.743
 Vibration    14          0.857              1.247              0.654
 Vibration    15          0.881              1.193              0.597
 Vibration    16          0.925              1.099              0.507

 Optimization completed.
    -- Stationary point found.
 Normal termination of Gaussian 16 at Mon Nov  5 01:03:48 2018.
