 Gaussian 16, Revision A.03,
 Gaussian 16:  ES64L-G16RevA.03 25-Dec-2016

 ----------------------------------------------------------------------
 #M062X/6-311++G(2d,2p) opt=ModRedundant freq=noraman SCRF=(Solvent=Wat
 er)
 ----------------------------------------------------------------------

 -----------------------------
 2SO_1_e4_D_PHI.inp_extract_22
 -----------------------------
 Symbolic Z-matrix:
 Charge =  0 Multiplicity = 1

 SCF Done:  E(RM062X) =  -617.494040210     A.U. after   12 cycles
 SCF Done:  E(RM062X) =  -617.495459057     A.U. after   10 cycles
 SCF Done:  E(RM062X) =  -617.495620202     A.U. after   10 cycles
 SCF Done:  E(RM062X) =  -617.495673197     A.U. after   10 cycles
 SCF Done:  E(RM062X) =  -617.495680978     A.U. after    8 cycles
 SCF Done:  E(RM062X) =  -617.495684367     A.U. after    8 cycles
 SCF Done:  E(RM062X) =  -617.495684710     A.U. after    7 cycles
 SCF Done:  E(RM062X) =  -617.495684766     A.U. after    6 cycles
 Optimization completed.
    -- Stationary point found.
 Normal termination of Gaussian 16 at Mon Nov  5 00:09:30 2018.

 ----------------------------------------------------------------------
 #N Geom=AllCheck Guess=TCheck SCRF=Check GenChk RM062X/6-311++G(2d,2p)
  Freq
 ----------------------------------------------------------------------

 Structure from the checkpoint file:  "2SO_1_e4_D_PHI.inp_extract_22.chk"
 -----------------------------
 2SO_1_e4_D_PHI.inp_extract_22
 -----------------------------
 Charge =  0 Multiplicity = 1

                         Standard orientation:
 ---------------------------------------------------------------------
 Center     Atomic      Atomic             Coordinates (Angstroms)
 Number     Number       Type             X           Y           Z
 ---------------------------------------------------------------------
      1          6           0        1.198570   -0.375112   -0.205383
      2          6           0       -3.964805    0.355027    0.383693
      3          6           0       -1.163249   -0.126765   -0.455599
      4          6           0       -2.690241    0.943201    0.996479
      5          6           0       -3.592471   -0.614465   -0.750579
      6          6           0        1.620507    1.085685   -0.295975
      7          6           0        2.162584   -1.138692    0.690881
      8          6           0        3.943395    0.310791    0.192823
      9          8           0        3.489714   -1.037383    0.213050
     10          6           0        3.085761    1.166411   -0.725469
     11          8           0       -0.091808   -0.540998    0.361707
     12          6           0       -2.224478   -1.224738   -0.462063
     13          8           0       -1.687625    1.101086   -0.003687
     14          1           0        1.221417   -0.828844   -1.203140
     15          1           0       -4.604751    1.151293    0.005895
     16          1           0       -4.519846   -0.166686    1.164526
     17          1           0       -0.799963    0.070101   -1.465908
     18          1           0       -2.862420    1.930913    1.416116
     19          1           0       -2.307268    0.303747    1.795187
     20          1           0       -3.546630   -0.075603   -1.698266
     21          1           0       -4.347561   -1.390345   -0.860891
     22          1           0        0.976417    1.629545   -0.987625
     23          1           0        1.494685    1.535246    0.693046
     24          1           0        1.905389   -2.195856    0.711139
     25          1           0        2.093504   -0.739035    1.710511
     26          1           0        3.920350    0.713368    1.212850
     27          1           0        4.977713    0.278563   -0.142451
     28          1           0        3.439006    2.197288   -0.700184
     29          1           0        3.195642    0.805244   -1.750292
     30          1           0       -2.227396   -1.711486    0.515384
     31          1           0       -1.943968   -1.977136   -1.197298
 ---------------------------------------------------------------------

 SCF Done:  E(RM062X) =  -617.495684766     A.U. after    1 cycles

 The electronic state is 1-A.
 Alpha  occ. eigenvalues --  -19.63246 -19.63215 -19.62955 -10.63670 -10.58896
 Alpha  occ. eigenvalues --  -10.58172 -10.58091 -10.57909 -10.53304 -10.53198
 Alpha  occ. eigenvalues --  -10.53164 -10.53159 -10.52909  -1.19926  -1.16743
 Alpha  occ. eigenvalues --   -1.13855  -0.90726  -0.89770  -0.87419  -0.84238
 Alpha  occ. eigenvalues --   -0.74973  -0.74608  -0.72912  -0.70552  -0.66019
 Alpha  occ. eigenvalues --   -0.62654  -0.60553  -0.58918  -0.57660  -0.57048
 Alpha  occ. eigenvalues --   -0.55243  -0.53136  -0.51778  -0.50363  -0.49403
 Alpha  occ. eigenvalues --   -0.47932  -0.46924  -0.46001  -0.45585  -0.44350
 Alpha  occ. eigenvalues --   -0.43702  -0.43156  -0.41110  -0.40632  -0.39703
 Alpha  occ. eigenvalues --   -0.38428  -0.37849  -0.36662  -0.34476  -0.33719
 Alpha  occ. eigenvalues --   -0.32204
 Alpha virt. eigenvalues --   -0.00065   0.00766   0.00777   0.01045   0.02129
 Alpha virt. eigenvalues --    0.02362   0.02550   0.03491   0.03586   0.04234
 Alpha virt. eigenvalues --    0.04455   0.04719   0.05572   0.05776   0.06746

 Mulliken charges:
               1
     1  C   -0.133829
     2  C   -0.502108
     3  C   -0.109818
     4  C   -0.044706
     5  C   -0.193580
     6  C   -0.199997
     7  C   -0.257666
     8  C   -0.216436
     9  O   -0.339498
    10  C   -0.391631
    11  O   -0.302878
    12  C   -0.366713
    13  O   -0.286911
    14  H    0.244176
    15  H    0.160214
    16  H    0.144283
    17  H    0.249896
    18  H    0.201673
    19  H    0.150225
    20  H    0.153320
    21  H    0.196960
    22  H    0.172833
    23  H    0.227462
    24  H    0.198497
    25  H    0.190442
    26  H    0.141405
    27  H    0.207282
    28  H    0.173266
    29  H    0.168671
    30  H    0.207605
    31  H    0.157560
 Sum of Mulliken charges =  -0.00000

 Dipole moment (field-independent basis, Debye):
    X=             -1.6185    Y=              0.6444    Z=             -0.6757  Tot=              1.8685
 Quadrupole moment (field-independent basis, Debye-Ang):
   XX=            -76.0644   YY=            -82.4710   ZZ=            -77.8271
   XY=              9.4954   XZ=             -1.5126   YZ=              1.6055

  Exact polarizability: 178.492   0.736 155.247  -2.515   1.683 152.186
 Approx polarizability: 147.231  -0.358 141.820  -2.884   0.594 142.379

 ******    1 imaginary frequencies (negative Signs) ******

                      1                      2                      3
                      A                      A                      A
 Frequencies --    -12.6011                52.5795                63.7928
 Red. masses --      4.3862                 3.3114                 3.5627
 Frc consts  --      0.0004                 0.0054                 0.0085
 IR Inten    --      2.2182                 1.6954                 2.3385

                      4                      5                      6
                      A                      A                      A
 Frequencies --    118.8862               181.4352               226.0621
 Red. masses --      2.9703                 2.0339                 2.9482
 Frc consts  --      0.0247                 0.0394                 0.0888
 IR Inten    --      2.0799                 0.5889                 2.3935

                      7                      8                      9
                      A                      A                      A
 Frequencies --    247.5382               260.7998               274.1832
 Red. masses --      2.0713                 3.0375                 3.4280
 Frc consts  --      0.0748                 0.1217                 0.1518
 IR Inten    --      5.2821                 0.1807                 3.8411

                     10                     11                     12
                      A                      A                      A
 Frequencies --    350.0922               392.7554               441.0557
 Red. masses --      2.5018                 2.3510                 3.5989
 Frc consts  --      0.1807                 0.2137                 0.4125
 IR Inten    --      3.1672                18.6071                 2.6025

                     13                     14                     15
                      A                      A                      A
 Frequencies --    456.0062               469.7707               513.2996
 Red. masses --      3.1415                 2.8187                 2.8624
 Frc consts  --      0.3849                 0.3665                 0.4443
 IR Inten    --      3.4406                 0.3370                13.0738

                     16                     17                     18
                      A                      A                      A
 Frequencies --    538.5719               576.2491               631.1493
 Red. masses --      4.4154                 2.7422                 1.9719
 Frc consts  --      0.7546                 0.5365                 0.4628
 IR Inten    --      4.1286                 8.6888                 8.7757

                     19                     20                     21
                      A                      A                      A
 Frequencies --    664.9107               782.1356               827.9255
 Red. masses --      3.3906                 1.2888                 2.2393
 Frc consts  --      0.8832                 0.4645                 0.9044
 IR Inten    --     11.2682                 5.2090                 0.5719

                     22                     23                     24
                      A                      A                      A
 Frequencies --    847.1545               875.5377               896.4705
 Red. masses --      2.4910                 1.4033                 2.4559
 Frc consts  --      1.0533                 0.6338                 1.1629
 IR Inten    --      6.2537                12.5835                16.9189

                     25                     26                     27
                      A                      A                      A
 Frequencies --    898.7895               917.3383               941.5238
 Red. masses --      2.4747                 2.2405                 2.1789
 Frc consts  --      1.1778                 1.1109                 1.1380
 IR Inten    --      2.2749                46.7911                41.5770

                     28                     29                     30
                      A                      A                      A
 Frequencies --    969.1002               989.9374               996.2090
 Red. masses --      1.8938                 2.2416                 1.4970
 Frc consts  --      1.0479                 1.2943                 0.8753
 IR Inten    --      7.7346                18.9114                10.0446

                     31                     32                     33
                      A                      A                      A
 Frequencies --   1009.3207              1055.1667              1069.2647
 Red. masses --      1.9338                 1.6826                 3.6605
 Frc consts  --      1.1607                 1.1038                 2.4658
 IR Inten    --      7.6744                 3.7327               206.4833

                     34                     35                     36
                      A                      A                      A
 Frequencies --   1075.4480              1086.5639              1120.1221
 Red. masses --      1.9079                 2.2250                 4.1632
 Frc consts  --      1.3001                 1.5477                 3.0776
 IR Inten    --    189.5305                34.5873               284.9559

                     37                     38                     39
                      A                      A                      A
 Frequencies --   1150.3007              1150.5207              1161.2028
 Red. masses --      3.2733                 2.6758                 2.9120
 Frc consts  --      2.5519                 2.0869                 2.3134
 IR Inten    --     49.7467                52.9411               221.5869

                     40                     41                     42
                      A                      A                      A
 Frequencies --   1177.9511              1187.1546              1208.5389
 Red. masses --      2.2468                 2.4174                 1.4969
 Frc consts  --      1.8368                 2.0073                 1.2881
 IR Inten    --     20.5471                36.0715                38.0835

                     43                     44                     45
                      A                      A                      A
 Frequencies --   1219.5773              1245.2781              1248.8527
 Red. masses --      1.5154                 1.6004                 1.5478
 Frc consts  --      1.3280                 1.4622                 1.4223
 IR Inten    --     12.1349                36.7958                29.7870

                     46                     47                     48
                      A                      A                      A
 Frequencies --   1289.9434              1301.3934              1307.5174
 Red. masses --      1.2055                 1.1814                 1.1706
 Frc consts  --      1.1818                 1.1789                 1.1791
 IR Inten    --      7.2391                12.7121                 6.6959

                     49                     50                     51
                      A                      A                      A
 Frequencies --   1330.3568              1341.4616              1348.1637
 Red. masses --      1.2845                 1.2489                 1.2968
 Frc consts  --      1.3394                 1.3242                 1.3887
 IR Inten    --     10.7280                 1.4571                 4.1454

                     52                     53                     54
                      A                      A                      A
 Frequencies --   1352.7368              1366.8008              1374.1670
 Red. masses --      1.2287                 1.4132                 1.4283
 Frc consts  --      1.3247                 1.5555                 1.5891
 IR Inten    --     15.7142                 2.9457                 0.6601

                     55                     56                     57
                      A                      A                      A
 Frequencies --   1381.3693              1398.4822              1400.9929
 Red. masses --      1.4470                 1.3297                 1.4551
 Frc consts  --      1.6268                 1.5322                 1.6827
 IR Inten    --      8.5723                 5.9533                17.1673

                     58                     59                     60
                      A                      A                      A
 Frequencies --   1409.2925              1418.4448              1426.1790
 Red. masses --      1.4184                 1.4295                 1.3602
 Frc consts  --      1.6598                 1.6945                 1.6300
 IR Inten    --     32.6230                30.6881                 0.1627

                     61                     62                     63
                      A                      A                      A
 Frequencies --   1448.0548              1480.7355              1487.1446
 Red. masses --      1.3606                 1.0937                 1.0781
 Frc consts  --      1.6809                 1.4129                 1.4048
 IR Inten    --      9.0124                 7.2927                 2.5393

                     64                     65                     66
                      A                      A                      A
 Frequencies --   1492.4843              1494.8632              1501.6960
 Red. masses --      1.1165                 1.0954                 1.0871
 Frc consts  --      1.4653                 1.4422                 1.4444
 IR Inten    --     14.0668                 6.3744                 0.5949

                     67                     68                     69
                      A                      A                      A
 Frequencies --   1503.1942              1514.1046              1526.2261
 Red. masses --      1.0983                 1.1015                 1.0865
 Frc consts  --      1.4621                 1.4878                 1.4911
 IR Inten    --     10.4551                 8.6618                 4.5830

                     70                     71                     72
                      A                      A                      A
 Frequencies --   3017.9587              3022.4383              3031.1598
 Red. masses --      1.0713                 1.0706                 1.0803
 Frc consts  --      5.7489                 5.7621                 5.8480
 IR Inten    --     20.5997                80.7766                74.7452

                     73                     74                     75
                      A                      A                      A
 Frequencies --   3058.1572              3062.0135              3070.8093
 Red. masses --      1.0649                 1.0691                 1.0624
 Frc consts  --      5.8679                 5.9056                 5.9024
 IR Inten    --     40.6266                43.5707                41.3501

                     76                     77                     78
                      A                      A                      A
 Frequencies --   3073.3717              3077.8304              3080.3115
 Red. masses --      1.0663                 1.0638                 1.0647
 Frc consts  --      5.9341                 5.9375                 5.9522
 IR Inten    --     18.9616                34.9716                42.6410

                     79                     80                     81
                      A                      A                      A
 Frequencies --   3085.2243              3113.3434              3116.2677
 Red. masses --      1.0835                 1.0990                 1.0991
 Frc consts  --      6.0764                 6.2765                 6.2885
 IR Inten    --     34.7435                40.2596                30.3249

                     82                     83                     84
                      A                      A                      A
 Frequencies --   3121.5432              3129.9359              3130.4917
 Red. masses --      1.1021                 1.0994                 1.1030
 Frc consts  --      6.3274                 6.3457                 6.3687
 IR Inten    --     52.2555                35.2444                62.5001

                     85                     86                     87
                      A                      A                      A
 Frequencies --   3133.7616              3136.0981              3143.6548
 Red. masses --      1.0945                 1.0955                 1.1001
 Frc consts  --      6.3330                 6.3483                 6.4054
 IR Inten    --     47.0809                38.6035                48.3273

 - Thermochemistry -
 -------------------
 Temperature   298.150 Kelvin.  Pressure   1.00000 Atm.
 Atom     1 has atomic number  6 and mass  12.00000

 Molecular mass:   186.12559 amu.
 Principal axes and moments of inertia in atomic units:
                           1         2         3
     Eigenvalues --   800.658714972.665235287.84358
           X            0.99992   0.01236  -0.00123
           Y           -0.01234   0.99982   0.01433
           Z            0.00141  -0.01432   0.99990
 This molecule is an asymmetric top.
 Rotational symmetry number  1.
 Warning -- assumption of classical behavior for rotation
           may cause significant error
 Rotational temperatures (Kelvin)      0.10818     0.01742     0.01638
 Rotational constants (GHZ):           2.25407     0.36293     0.34130
    1 imaginary frequencies ignored.
 Zero-point vibrational energy     736102.3 (Joules/Mol)
                                  175.93268 (Kcal/Mol)
 Warning -- explicit consideration of  16 degrees of freedom as
           vibrations may cause significant error
 Vibrational temperatures:     75.65    91.78   171.05   261.04   325.25
          (Kelvin)            356.15   375.23   394.49   503.70   565.09
                              634.58   656.09   675.90   738.52   774.88
                              829.09   908.08   956.66  1125.32  1191.20
                             1218.87  1259.70  1289.82  1293.16  1319.85
                             1354.64  1394.32  1424.30  1433.32  1452.19
                             1518.15  1538.43  1547.33  1563.32  1611.61
                             1655.03  1655.34  1670.71  1694.81  1708.05
                             1738.82  1754.70  1791.68  1796.82  1855.94
                             1872.41  1881.23  1914.09  1930.06  1939.71
                             1946.29  1966.52  1977.12  1987.48  2012.10
                             2015.72  2027.66  2040.83  2051.95  2083.43
                             2130.45  2139.67  2147.35  2150.77  2160.61
                             2162.76  2178.46  2195.90  4342.17  4348.61
                             4361.16  4400.01  4405.55  4418.21  4421.90
                             4428.31  4431.88  4438.95  4479.41  4483.61
                             4491.20  4503.28  4504.08  4508.78  4512.15
                             4523.02

 Zero-point correction=                           0.280367 (Hartree/Particle)
 Thermal correction to Energy=                    0.291477
 Thermal correction to Enthalpy=                  0.292422
 Thermal correction to Gibbs Free Energy=         0.242962
 Sum of electronic and zero-point Energies=           -617.215318
 Sum of electronic and thermal Energies=              -617.204207
 Sum of electronic and thermal Enthalpies=            -617.203263
 Sum of electronic and thermal Free Energies=         -617.252723

                     E (Thermal)             CV                S
                      KCal/Mol        Cal/Mol-Kelvin    Cal/Mol-Kelvin
 Total                  182.905             44.935            104.096
 Electronic               0.000              0.000              0.000
 Translational            0.889              2.981             41.570
 Rotational               0.889              2.981             31.421
 Vibrational            181.127             38.973             31.105
 Vibration     1          0.596              1.977              4.718
 Vibration     2          0.597              1.972              4.336
 Vibration     3          0.609              1.934              3.118
 Vibration     4          0.630              1.865              2.314
 Vibration     5          0.650              1.801              1.910
 Vibration     6          0.661              1.767              1.748
 Vibration     7          0.669              1.744              1.656
 Vibration     8          0.676              1.721              1.570
 Vibration     9          0.727              1.575              1.166
 Vibration    10          0.760              1.486              0.990
 Vibration    11          0.801              1.381              0.823
 Vibration    12          0.814              1.348              0.778
 Vibration    13          0.827              1.317              0.738
 Vibration    14          0.868              1.221              0.626
 Vibration    15          0.894              1.165              0.568
 Vibration    16          0.933              1.083              0.492

 Optimization completed.
    -- Stationary point found.
 Normal termination of Gaussian 16 at Mon Nov  5 01:04:41 2018.
