 Gaussian 16, Revision A.03,
 Gaussian 16:  ES64L-G16RevA.03 25-Dec-2016

 ----------------------------------------------------------------------
 #M062X/6-311++G(2d,2p) opt=ModRedundant freq=noraman SCRF=(Solvent=Wat
 er)
 ----------------------------------------------------------------------

 -----------------------------
 2SO_1_e4_D_PHI.inp_extract_18
 -----------------------------
 Symbolic Z-matrix:
 Charge =  0 Multiplicity = 1

 SCF Done:  E(RM062X) =  -617.491997546     A.U. after   12 cycles
 SCF Done:  E(RM062X) =  -617.493416243     A.U. after   10 cycles
 SCF Done:  E(RM062X) =  -617.493575742     A.U. after    9 cycles
 SCF Done:  E(RM062X) =  -617.493633278     A.U. after   10 cycles
 SCF Done:  E(RM062X) =  -617.493676013     A.U. after    9 cycles
 SCF Done:  E(RM062X) =  -617.493692595     A.U. after   10 cycles
 SCF Done:  E(RM062X) =  -617.493691876     A.U. after    8 cycles
 SCF Done:  E(RM062X) =  -617.493695080     A.U. after    9 cycles
 SCF Done:  E(RM062X) =  -617.493700605     A.U. after    8 cycles
 SCF Done:  E(RM062X) =  -617.493700119     A.U. after    9 cycles
 SCF Done:  E(RM062X) =  -617.493701207     A.U. after    8 cycles
 SCF Done:  E(RM062X) =  -617.493700842     A.U. after    8 cycles
 SCF Done:  E(RM062X) =  -617.493700782     A.U. after    6 cycles
 SCF Done:  E(RM062X) =  -617.493701188     A.U. after    8 cycles
 SCF Done:  E(RM062X) =  -617.493700810     A.U. after    8 cycles
 Optimization completed.
    -- Stationary point found.
 Normal termination of Gaussian 16 at Mon Nov  5 00:37:59 2018.

 ----------------------------------------------------------------------
 #N Geom=AllCheck Guess=TCheck SCRF=Check GenChk RM062X/6-311++G(2d,2p)
  Freq
 ----------------------------------------------------------------------

 Structure from the checkpoint file:  "2SO_1_e4_D_PHI.inp_extract_18.chk"
 -----------------------------
 2SO_1_e4_D_PHI.inp_extract_18
 -----------------------------
 Charge =  0 Multiplicity = 1

                         Standard orientation:
 ---------------------------------------------------------------------
 Center     Atomic      Atomic             Coordinates (Angstroms)
 Number     Number       Type             X           Y           Z
 ---------------------------------------------------------------------
      1          6           0       -1.114942   -0.033040    0.122445
      2          6           0        3.971023   -0.254885    0.323287
      3          6           0        1.179129    0.410122   -0.392402
      4          6           0        3.054192   -0.986182   -0.661679
      5          6           0        3.209933    0.917807    0.960945
      6          6           0       -1.848713    0.941143   -0.793736
      7          6           0       -1.973648   -1.269406    0.355396
      8          6           0       -3.975485   -0.090871    0.020976
      9          8           0       -3.234025   -0.930106    0.897614
     10          6           0       -3.244830    1.217003   -0.232578
     11          8           0        0.099375   -0.507972   -0.437613
     12          6           0        1.721246    0.585486    1.030323
     13          8           0        2.154141   -0.064255   -1.276132
     14          1           0       -0.929307    0.439727    1.093171
     15          1           0        4.863552    0.106472   -0.185645
     16          1           0        4.295229   -0.960686    1.089123
     17          1           0        0.859283    1.370916   -0.801800
     18          1           0        3.613764   -1.449823   -1.469512
     19          1           0        2.480333   -1.767041   -0.158420
     20          1           0        3.340817    1.816302    0.355951
     21          1           0        3.601278    1.141140    1.951497
     22          1           0       -1.294229    1.872095   -0.907315
     23          1           0       -1.928776    0.478772   -1.781517
     24          1           0       -1.485955   -1.937797    1.062196
     25          1           0       -2.099425   -1.796363   -0.599111
     26          1           0       -4.143799   -0.618651   -0.925740
     27          1           0       -4.937954    0.075994    0.499633
     28          1           0       -3.821473    1.830601   -0.924740
     29          1           0       -3.166933    1.766292    0.708155
     30          1           0        1.565085   -0.342605    1.585423
     31          1           0        1.165148    1.370270    1.539837
 ---------------------------------------------------------------------

 SCF Done:  E(RM062X) =  -617.493700810     A.U. after    1 cycles

 The electronic state is 1-A.
 Alpha  occ. eigenvalues --  -19.63372 -19.63205 -19.63076 -10.63791 -10.58935
 Alpha  occ. eigenvalues --  -10.58169 -10.58091 -10.58028 -10.53361 -10.53340
 Alpha  occ. eigenvalues --  -10.53296 -10.53293 -10.52973  -1.20181  -1.16788
 Alpha  occ. eigenvalues --   -1.13889  -0.90389  -0.90082  -0.87365  -0.84410
 Alpha  occ. eigenvalues --   -0.75039  -0.74463  -0.73396  -0.70519  -0.65853
 Alpha  occ. eigenvalues --   -0.62387  -0.60988  -0.58918  -0.57831  -0.57171
 Alpha  occ. eigenvalues --   -0.54877  -0.53141  -0.52155  -0.50692  -0.49285
 Alpha  occ. eigenvalues --   -0.48084  -0.46878  -0.46173  -0.45592  -0.44847
 Alpha  occ. eigenvalues --   -0.44303  -0.42921  -0.41102  -0.40448  -0.39717
 Alpha  occ. eigenvalues --   -0.38372  -0.37903  -0.36990  -0.34804  -0.33582
 Alpha  occ. eigenvalues --   -0.31821
 Alpha virt. eigenvalues --   -0.00081   0.00772   0.00885   0.01031   0.02155
 Alpha virt. eigenvalues --    0.02362   0.02599   0.03547   0.03936   0.04195
 Alpha virt. eigenvalues --    0.04479   0.04570   0.05362   0.06153   0.06793

 Mulliken charges:
               1
     1  C   -0.124770
     2  C   -0.441201
     3  C   -0.281107
     4  C   -0.095304
     5  C   -0.346825
     6  C   -0.165773
     7  C   -0.247745
     8  C   -0.186821
     9  O   -0.325005
    10  C   -0.391471
    11  O   -0.334374
    12  C   -0.192859
    13  O   -0.281235
    14  H    0.274016
    15  H    0.161087
    16  H    0.147992
    17  H    0.298558
    18  H    0.205778
    19  H    0.161507
    20  H    0.160163
    21  H    0.180315
    22  H    0.141172
    23  H    0.215773
    24  H    0.194510
    25  H    0.188646
    26  H    0.141120
    27  H    0.207812
    28  H    0.180162
    29  H    0.162340
    30  H    0.234652
    31  H    0.158887
 Sum of Mulliken charges =  -0.00000

 Dipole moment (field-independent basis, Debye):
    X=              0.6610    Y=              2.1005    Z=              1.1383  Tot=              2.4789
 Quadrupole moment (field-independent basis, Debye-Ang):
   XX=            -73.8701   YY=            -78.6557   ZZ=            -84.7341
   XY=             -6.4694   XZ=              9.8465   YZ=              1.0671

  Exact polarizability: 180.353  -4.603 155.134   0.060   1.586 149.787
 Approx polarizability: 148.778  -3.038 141.915  -1.319   0.429 140.970

 ******    1 imaginary frequencies (negative Signs) ******

                      1                      2                      3
                      A                      A                      A
 Frequencies --    -22.5882                43.1076                70.5717
 Red. masses --      3.1945                 3.8895                 3.3563
 Frc consts  --      0.0010                 0.0043                 0.0098
 IR Inten    --      2.2197                 2.3220                 0.4140

                      4                      5                      6
                      A                      A                      A
 Frequencies --    130.0961               174.4526               197.8645
 Red. masses --      3.2478                 2.7909                 1.9639
 Frc consts  --      0.0324                 0.0500                 0.0453
 IR Inten    --      2.5896                 1.4947                 0.6535

                      7                      8                      9
                      A                      A                      A
 Frequencies --    243.4599               258.7589               305.9393
 Red. masses --      1.9757                 2.7000                 4.0825
 Frc consts  --      0.0690                 0.1065                 0.2251
 IR Inten    --      5.0089                 1.8165                 9.0832

                     10                     11                     12
                      A                      A                      A
 Frequencies --    363.2878               410.1431               419.5036
 Red. masses --      2.5013                 3.7701                 2.4845
 Frc consts  --      0.1945                 0.3737                 0.2576
 IR Inten    --      8.8801                 7.8628                 4.6096

                     13                     14                     15
                      A                      A                      A
 Frequencies --    450.4234               469.5687               499.1257
 Red. masses --      3.4402                 2.9719                 3.5682
 Frc consts  --      0.4112                 0.3861                 0.5237
 IR Inten    --      7.2464                 1.1262                 5.9350

                     16                     17                     18
                      A                      A                      A
 Frequencies --    523.6004               567.3764               634.1287
 Red. masses --      3.3689                 2.3862                 2.0075
 Frc consts  --      0.5442                 0.4526                 0.4756
 IR Inten    --      8.4018                 2.5161                 6.6091

                     19                     20                     21
                      A                      A                      A
 Frequencies --    680.0064               780.9530               828.4567
 Red. masses --      3.5267                 1.2942                 2.2462
 Frc consts  --      0.9608                 0.4650                 0.9083
 IR Inten    --     15.1449                 4.0038                 0.3928

                     22                     23                     24
                      A                      A                      A
 Frequencies --    843.9790               874.9868               894.3325
 Red. masses --      2.4463                 1.4096                 2.5417
 Frc consts  --      1.0267                 0.6358                 1.1978
 IR Inten    --      2.1936                14.2751                 7.0802

                     25                     26                     27
                      A                      A                      A
 Frequencies --    901.0289               925.5203               943.3192
 Red. masses --      2.4476                 2.2363                 2.1691
 Frc consts  --      1.1708                 1.1286                 1.1373
 IR Inten    --      6.8414                42.9737                42.0948

                     28                     29                     30
                      A                      A                      A
 Frequencies --    965.4758               985.5803              1000.6451
 Red. masses --      1.7139                 2.6309                 1.4941
 Frc consts  --      0.9413                 1.5057                 0.8814
 IR Inten    --      1.5918                30.2401                13.5737

                     31                     32                     33
                      A                      A                      A
 Frequencies --   1007.2736              1060.0403              1067.5950
 Red. masses --      1.9631                 1.7063                 2.6184
 Frc consts  --      1.1735                 1.1296                 1.7584
 IR Inten    --     12.6624                 9.9691                37.9393

                     34                     35                     36
                      A                      A                      A
 Frequencies --   1081.0266              1092.3620              1128.3695
 Red. masses --      2.7165                 2.0642                 4.9347
 Frc consts  --      1.8704                 1.4513                 3.7018
 IR Inten    --    241.6767                31.1109               426.7023

                     37                     38                     39
                      A                      A                      A
 Frequencies --   1150.7920              1153.0511              1159.7778
 Red. masses --      3.4329                 2.7598                 2.3832
 Frc consts  --      2.6786                 2.1619                 1.8887
 IR Inten    --     25.4677               115.0640                81.3727

                     40                     41                     42
                      A                      A                      A
 Frequencies --   1170.9728              1190.0683              1208.8955
 Red. masses --      2.4194                 2.4006                 1.4007
 Frc consts  --      1.9546                 2.0031                 1.2060
 IR Inten    --     18.7877                35.7876                 4.4917

                     43                     44                     45
                      A                      A                      A
 Frequencies --   1210.2451              1247.3939              1258.3610
 Red. masses --      1.4872                 1.5489                 1.6842
 Frc consts  --      1.2835                 1.4200                 1.5713
 IR Inten    --     25.7499                 8.0502                90.1067

                     46                     47                     48
                      A                      A                      A
 Frequencies --   1289.6157              1303.4750              1309.6865
 Red. masses --      1.2141                 1.1963                 1.1672
 Frc consts  --      1.1896                 1.1976                 1.1796
 IR Inten    --      8.6908                 4.7155                10.5785

                     49                     50                     51
                      A                      A                      A
 Frequencies --   1331.7957              1339.9681              1350.6739
 Red. masses --      1.2897                 1.2552                 1.2849
 Frc consts  --      1.3477                 1.3278                 1.3811
 IR Inten    --     10.2675                 1.2187                 0.8502

                     52                     53                     54
                      A                      A                      A
 Frequencies --   1357.4305              1368.3780              1370.3143
 Red. masses --      1.2332                 1.4081                 1.3962
 Frc consts  --      1.3388                 1.5534                 1.5446
 IR Inten    --      9.8443                 5.0418                 1.3273

                     55                     56                     57
                      A                      A                      A
 Frequencies --   1382.8599              1395.7628              1404.1151
 Red. masses --      1.4373                 1.4957                 1.3221
 Frc consts  --      1.6194                 1.7168                 1.5357
 IR Inten    --     15.5619                28.7629                 5.1835

                     58                     59                     60
                      A                      A                      A
 Frequencies --   1405.3168              1415.0480              1428.9075
 Red. masses --      1.3544                 1.4047                 1.3630
 Frc consts  --      1.5760                 1.6573                 1.6397
 IR Inten    --     37.7760                 9.0271                 6.7816

                     61                     62                     63
                      A                      A                      A
 Frequencies --   1438.7489              1480.7444              1488.2570
 Red. masses --      1.4129                 1.0924                 1.0778
 Frc consts  --      1.7231                 1.4111                 1.4066
 IR Inten    --     10.7719                 8.4391                 2.4427

                     64                     65                     66
                      A                      A                      A
 Frequencies --   1493.7482              1495.2108              1501.8679
 Red. masses --      1.0956                 1.1126                 1.0855
 Frc consts  --      1.4403                 1.4656                 1.4425
 IR Inten    --     10.1874                 6.2441                 0.6457

                     67                     68                     69
                      A                      A                      A
 Frequencies --   1504.0349              1514.5008              1523.0591
 Red. masses --      1.0978                 1.1014                 1.0877
 Frc consts  --      1.4631                 1.4884                 1.4866
 IR Inten    --      9.7924                 8.6942                 4.0573

                     70                     71                     72
                      A                      A                      A
 Frequencies --   3018.1208              3020.6655              3043.2329
 Red. masses --      1.0693                 1.0704                 1.0808
 Frc consts  --      5.7387                 5.7546                 5.8973
 IR Inten    --     29.0657                91.7607                32.9111

                     73                     74                     75
                      A                      A                      A
 Frequencies --   3060.3502              3064.3193              3069.6485
 Red. masses --      1.0665                 1.0702                 1.0637
 Frc consts  --      5.8850                 5.9208                 5.9054
 IR Inten    --     38.8708                31.1542                42.4355

                     76                     77                     78
                      A                      A                      A
 Frequencies --   3071.6407              3075.8284              3078.2088
 Red. masses --      1.0689                 1.0806                 1.0611
 Frc consts  --      5.9418                 6.0231                 5.9240
 IR Inten    --     17.4719                47.1661                50.3664

                     79                     80                     81
                      A                      A                      A
 Frequencies --   3081.5898              3118.4237              3118.5046
 Red. masses --      1.0655                 1.0985                 1.0978
 Frc consts  --      5.9616                 6.2940                 6.2903
 IR Inten    --     37.0292                55.0831                16.8003

                     82                     83                     84
                      A                      A                      A
 Frequencies --   3121.8274              3131.7654              3132.0658
 Red. masses --      1.1026                 1.0977                 1.1028
 Frc consts  --      6.3313                 6.3431                 6.3742
 IR Inten    --     53.2281                55.7652                59.5037

                     85                     86                     87
                      A                      A                      A
 Frequencies --   3132.7832              3135.4663              3149.0017
 Red. masses --      1.0958                 1.0954                 1.1002
 Frc consts  --      6.3363                 6.3448                 6.4280
 IR Inten    --     19.4827                42.2857                46.4983

 - Thermochemistry -
 -------------------
 Temperature   298.150 Kelvin.  Pressure   1.00000 Atm.
 Atom     1 has atomic number  6 and mass  12.00000

 Molecular mass:   186.12559 amu.
 Principal axes and moments of inertia in atomic units:
                           1         2         3
     Eigenvalues --   832.588975049.145595125.38743
           X            0.99989  -0.00800   0.01245
           Y            0.00697   0.99672   0.08060
           Z           -0.01306  -0.08051   0.99667
 This molecule is an asymmetric top.
 Rotational symmetry number  1.
 Warning -- assumption of classical behavior for rotation
           may cause significant error
 Rotational temperatures (Kelvin)      0.10403     0.01715     0.01690
 Rotational constants (GHZ):           2.16763     0.35743     0.35212
    1 imaginary frequencies ignored.
 Zero-point vibrational energy     736235.0 (Joules/Mol)
                                  175.96439 (Kcal/Mol)
 Warning -- explicit consideration of  16 degrees of freedom as
           vibrations may cause significant error
 Vibrational temperatures:     62.02   101.54   187.18   251.00   284.68
          (Kelvin)            350.28   372.30   440.18   522.69   590.10
                              603.57   648.06   675.60   718.13   753.34
                              816.33   912.37   978.38  1123.62  1191.96
                             1214.30  1258.91  1286.74  1296.38  1331.62
                             1357.23  1389.10  1418.03  1439.71  1449.24
                             1525.16  1536.03  1555.36  1571.67  1623.47
                             1655.73  1658.98  1668.66  1684.77  1712.24
                             1739.33  1741.27  1794.72  1810.50  1855.47
                             1875.41  1884.35  1916.16  1927.92  1943.32
                             1953.04  1968.79  1971.58  1989.63  2008.19
                             2020.21  2021.94  2035.94  2055.88  2070.04
                             2130.46  2141.27  2149.17  2151.27  2160.85
                             2163.97  2179.03  2191.34  4342.40  4346.06
                             4378.53  4403.16  4408.87  4416.54  4419.41
                             4425.43  4428.86  4433.72  4486.72  4486.83
                             4491.61  4505.91  4506.34  4507.38  4511.24
                             4530.71

 Zero-point correction=                           0.280417 (Hartree/Particle)
 Thermal correction to Energy=                    0.291544
 Thermal correction to Enthalpy=                  0.292489
 Thermal correction to Gibbs Free Energy=         0.242916
 Sum of electronic and zero-point Energies=           -617.213284
 Sum of electronic and thermal Energies=              -617.202156
 Sum of electronic and thermal Enthalpies=            -617.201212
 Sum of electronic and thermal Free Energies=         -617.250785

                     E (Thermal)             CV                S
                      KCal/Mol        Cal/Mol-Kelvin    Cal/Mol-Kelvin
 Total                  182.947             44.950            104.335
 Electronic               0.000              0.000              0.000
 Translational            0.889              2.981             41.570
 Rotational               0.889              2.981             31.444
 Vibrational            181.169             38.989             31.321
 Vibration     1          0.595              1.980              5.111
 Vibration     2          0.598              1.968              4.137
 Vibration     3          0.612              1.923              2.945
 Vibration     4          0.627              1.874              2.387
 Vibration     5          0.637              1.843              2.153
 Vibration     6          0.659              1.774              1.777
 Vibration     7          0.668              1.748              1.670
 Vibration     8          0.696              1.662              1.384
 Vibration     9          0.737              1.548              1.108
 Vibration    10          0.774              1.448              0.926
 Vibration    11          0.782              1.428              0.894
 Vibration    12          0.809              1.360              0.794
 Vibration    13          0.827              1.318              0.739
 Vibration    14          0.855              1.252              0.660
 Vibration    15          0.879              1.198              0.602
 Vibration    16          0.923              1.102              0.509

 Optimization completed.
    -- Stationary point found.
 Normal termination of Gaussian 16 at Mon Nov  5 01:29:59 2018.
