 Gaussian 16, Revision A.03,
 Gaussian 16:  ES64L-G16RevA.03 25-Dec-2016

 ----------------------------------------------------------------------
 #M062X/6-311++G(2d,2p) opt=ModRedundant freq=noraman SCRF=(Solvent=Wat
 er)
 ----------------------------------------------------------------------

 ----------------------------
 2SO_1_e4_D_PHI.inp_extract_3
 ----------------------------
 Symbolic Z-matrix:
 Charge =  0 Multiplicity = 1

 SCF Done:  E(RM062X) =  -617.491748547     A.U. after   12 cycles
 SCF Done:  E(RM062X) =  -617.493281648     A.U. after   11 cycles
 SCF Done:  E(RM062X) =  -617.493651539     A.U. after   10 cycles
 SCF Done:  E(RM062X) =  -617.493826833     A.U. after    9 cycles
 SCF Done:  E(RM062X) =  -617.493856745     A.U. after    9 cycles
 SCF Done:  E(RM062X) =  -617.493860905     A.U. after    8 cycles
 SCF Done:  E(RM062X) =  -617.493861806     A.U. after    7 cycles
 SCF Done:  E(RM062X) =  -617.493861950     A.U. after    6 cycles
 Optimization completed.
    -- Stationary point found.
 Normal termination of Gaussian 16 at Mon Nov  5 00:15:44 2018.

 ----------------------------------------------------------------------
 #N Geom=AllCheck Guess=TCheck SCRF=Check GenChk RM062X/6-311++G(2d,2p)
  Freq
 ----------------------------------------------------------------------

 Structure from the checkpoint file:  "2SO_1_e4_D_PHI.inp_extract_3.chk"
 ----------------------------
 2SO_1_e4_D_PHI.inp_extract_3
 ----------------------------
 Charge =  0 Multiplicity = 1

                         Standard orientation:
 ---------------------------------------------------------------------
 Center     Atomic      Atomic             Coordinates (Angstroms)
 Number     Number       Type             X           Y           Z
 ---------------------------------------------------------------------
      1          6           0        1.072896   -0.375449   -0.238079
      2          6           0       -3.536460    1.028922    0.074167
      3          6           0       -1.304055   -0.840895   -0.372625
      4          6           0       -2.056470    1.381380   -0.075535
      5          6           0       -3.706978   -0.500792    0.110979
      6          6           0        1.323647    0.947894    0.471074
      7          6           0        2.253603   -1.314840   -0.014130
      8          6           0        3.769544    0.451635    0.278685
      9          8           0        3.471917   -0.737222   -0.441793
     10          6           0        2.691929    1.501011    0.067200
     11          8           0       -0.061080   -1.067761    0.267842
     12          6           0       -2.419926   -1.151274    0.612785
     13          8           0       -1.407386    0.443374   -0.935904
     14          1           0        0.963564   -0.204339   -1.312689
     15          1           0       -4.109260    1.452952   -0.749358
     16          1           0       -3.907391    1.479565    0.995484
     17          1           0       -1.362190   -1.512268   -1.235803
     18          1           0       -1.913644    2.360168   -0.526909
     19          1           0       -1.561304    1.386316    0.898219
     20          1           0       -3.917488   -0.872837   -0.893010
     21          1           0       -4.550608   -0.782229    0.737588
     22          1           0        0.538026    1.662269    0.235616
     23          1           0        1.300448    0.763965    1.549308
     24          1           0        2.115317   -2.233119   -0.581426
     25          1           0        2.309077   -1.566430    1.052843
     26          1           0        3.860526    0.213130    1.345606
     27          1           0        4.737054    0.793966   -0.082334
     28          1           0        2.929980    2.393377    0.646457
     29          1           0        2.681014    1.786513   -0.987076
     30          1           0       -2.149300   -0.762251    1.595876
     31          1           0       -2.517819   -2.231432    0.703308
 ---------------------------------------------------------------------

 SCF Done:  E(RM062X) =  -617.493861950     A.U. after    1 cycles

 The electronic state is 1-A.
 Alpha  occ. eigenvalues --  -19.63499 -19.63038 -19.62934 -10.63738 -10.58561
 Alpha  occ. eigenvalues --  -10.58183 -10.57971 -10.57901 -10.53389 -10.53338
 Alpha  occ. eigenvalues --  -10.53162 -10.53071 -10.52880  -1.19973  -1.16592
 Alpha  occ. eigenvalues --   -1.13612  -0.91002  -0.89809  -0.87321  -0.84148
 Alpha  occ. eigenvalues --   -0.75500  -0.73987  -0.73442  -0.69964  -0.65391
 Alpha  occ. eigenvalues --   -0.62769  -0.60172  -0.59392  -0.58506  -0.56520
 Alpha  occ. eigenvalues --   -0.55032  -0.52724  -0.52345  -0.49577  -0.49194
 Alpha  occ. eigenvalues --   -0.47977  -0.47194  -0.46262  -0.45584  -0.44745
 Alpha  occ. eigenvalues --   -0.44447  -0.42286  -0.40730  -0.40593  -0.39328
 Alpha  occ. eigenvalues --   -0.38845  -0.37699  -0.36340  -0.34619  -0.34148
 Alpha  occ. eigenvalues --   -0.31664
 Alpha virt. eigenvalues --   -0.00101   0.00740   0.00834   0.01062   0.02166
 Alpha virt. eigenvalues --    0.02506   0.02591   0.03478   0.03655   0.04172
 Alpha virt. eigenvalues --    0.04759   0.04875   0.05557   0.05897   0.07015

 Mulliken charges:
               1
     1  C   -0.089411
     2  C   -0.544818
     3  C   -0.434196
     4  C   -0.002734
     5  C   -0.214553
     6  C   -0.181774
     7  C   -0.267241
     8  C   -0.234485
     9  O   -0.339565
    10  C   -0.344861
    11  O   -0.249495
    12  C   -0.195545
    13  O   -0.275529
    14  H    0.250264
    15  H    0.163936
    16  H    0.152771
    17  H    0.236842
    18  H    0.231615
    19  H    0.130233
    20  H    0.156830
    21  H    0.194469
    22  H    0.167629
    23  H    0.234213
    24  H    0.198460
    25  H    0.181933
    26  H    0.139938
    27  H    0.208874
    28  H    0.171049
    29  H    0.169845
    30  H    0.196581
    31  H    0.188726
 Sum of Mulliken charges =  -0.00000

 Dipole moment (field-independent basis, Debye):
    X=             -2.5498    Y=              2.0387    Z=              1.7203  Tot=              3.6901
 Quadrupole moment (field-independent basis, Debye-Ang):
   XX=            -78.0921   YY=            -77.6786   ZZ=            -82.0440
   XY=              5.4790   XZ=              2.3059   YZ=              1.7576

  Exact polarizability: 175.948   2.279 162.832   0.547   0.377 147.536
 Approx polarizability: 145.691   1.392 144.884   0.026   0.110 142.008

                      1                      2                      3
                      A                      A                      A
 Frequencies --     29.7858                60.9398                96.9604
 Red. masses --      3.0383                 4.0315                 3.6958
 Frc consts  --      0.0016                 0.0088                 0.0205
 IR Inten    --      2.3430                 0.9126                 0.6195

                      4                      5                      6
                      A                      A                      A
 Frequencies --    116.0324               183.4742               196.1233
 Red. masses --      3.5978                 2.8838                 1.7713
 Frc consts  --      0.0285                 0.0572                 0.0401
 IR Inten    --      4.0329                 1.6570                 0.9719

                      7                      8                      9
                      A                      A                      A
 Frequencies --    245.8657               266.3448               284.7959
 Red. masses --      1.9512                 4.8024                 2.9184
 Frc consts  --      0.0695                 0.2007                 0.1395
 IR Inten    --      4.6903                 0.1851                 6.7691

                     10                     11                     12
                      A                      A                      A
 Frequencies --    354.7052               379.3228               435.4602
 Red. masses --      3.1754                 2.3710                 3.7617
 Frc consts  --      0.2354                 0.2010                 0.4203
 IR Inten    --     12.7257                19.7146                 2.8401

                     13                     14                     15
                      A                      A                      A
 Frequencies --    449.2938               474.8143               503.2527
 Red. masses --      2.5163                 3.0681                 2.7294
 Frc consts  --      0.2993                 0.4075                 0.4073
 IR Inten    --      4.7307                 1.0810                 5.9222

                     16                     17                     18
                      A                      A                      A
 Frequencies --    529.8835               606.5914               628.8346
 Red. masses --      3.5940                 2.1582                 2.1488
 Frc consts  --      0.5946                 0.4679                 0.5006
 IR Inten    --      1.1281                10.0621                 5.1084

                     19                     20                     21
                      A                      A                      A
 Frequencies --    655.8364               782.6905               829.2846
 Red. masses --      4.5890                 1.3229                 2.1317
 Frc consts  --      1.1629                 0.4775                 0.8637
 IR Inten    --     10.3445                 5.0655                 0.0117

                     22                     23                     24
                      A                      A                      A
 Frequencies --    840.0294               876.2203               891.6884
 Red. masses --      2.6407                 1.4100                 2.6451
 Frc consts  --      1.0979                 0.6378                 1.2391
 IR Inten    --      6.2107                12.3023                 5.9453

                     25                     26                     27
                      A                      A                      A
 Frequencies --    900.9427               921.4437               943.2440
 Red. masses --      2.3939                 2.1556                 2.2498
 Frc consts  --      1.1448                 1.0783                 1.1793
 IR Inten    --      8.7513                31.5853                51.5475

                     28                     29                     30
                      A                      A                      A
 Frequencies --    964.1060               986.4038               997.6597
 Red. masses --      1.9353                 2.1909                 1.5494
 Frc consts  --      1.0599                 1.2560                 0.9086
 IR Inten    --     20.7381                25.6786                 4.7672

                     31                     32                     33
                      A                      A                      A
 Frequencies --   1006.2542              1057.7636              1068.6524
 Red. masses --      1.8677                 1.8277                 2.3841
 Frc consts  --      1.1142                 1.2048                 1.6042
 IR Inten    --      6.1003                 6.0765               105.2954

                     34                     35                     36
                      A                      A                      A
 Frequencies --   1075.5941              1087.2670              1113.5648
 Red. masses --      2.1039                 2.3549                 4.9131
 Frc consts  --      1.4340                 1.6402                 3.5895
 IR Inten    --     26.0282                54.2248               356.0974

                     37                     38                     39
                      A                      A                      A
 Frequencies --   1149.1686              1157.5907              1162.0309
 Red. masses --      2.5903                 2.9742                 2.7942
 Frc consts  --      2.0154                 2.3482                 2.2230
 IR Inten    --     10.8917               184.3340               123.3045

                     40                     41                     42
                      A                      A                      A
 Frequencies --   1172.3776              1190.7783              1210.5298
 Red. masses --      2.4758                 2.3313                 1.4571
 Frc consts  --      2.0050                 1.9476                 1.2580
 IR Inten    --     91.3164                38.4385                19.1521

                     43                     44                     45
                      A                      A                      A
 Frequencies --   1214.1813              1247.6114              1248.6273
 Red. masses --      1.4489                 1.6139                 1.6285
 Frc consts  --      1.2585                 1.4801                 1.4959
 IR Inten    --      3.1611                37.4098                69.5185

                     46                     47                     48
                      A                      A                      A
 Frequencies --   1286.0132              1302.3209              1308.0893
 Red. masses --      1.2115                 1.1770                 1.1849
 Frc consts  --      1.1805                 1.1761                 1.1946
 IR Inten    --      2.2670                17.4359                10.0920

                     49                     50                     51
                      A                      A                      A
 Frequencies --   1329.2463              1337.6555              1346.1294
 Red. masses --      1.3085                 1.2283                 1.2766
 Frc consts  --      1.3621                 1.2949                 1.3630
 IR Inten    --      6.2659                 6.6173                 2.2631

                     52                     53                     54
                      A                      A                      A
 Frequencies --   1350.4131              1368.7074              1372.8594
 Red. masses --      1.2729                 1.4003                 1.4062
 Frc consts  --      1.3677                 1.5456                 1.5615
 IR Inten    --     12.3396                 3.2841                 2.3756

                     55                     56                     57
                      A                      A                      A
 Frequencies --   1382.1134              1391.4898              1404.2285
 Red. masses --      1.4391                 1.4665                 1.4371
 Frc consts  --      1.6197                 1.6729                 1.6696
 IR Inten    --      7.4610                21.7946                41.7385

                     58                     59                     60
                      A                      A                      A
 Frequencies --   1410.4353              1420.0041              1437.4211
 Red. masses --      1.2586                 1.4151                 1.5236
 Frc consts  --      1.4752                 1.6812                 1.8548
 IR Inten    --      1.1404                 4.3868                 8.8982

                     61                     62                     63
                      A                      A                      A
 Frequencies --   1442.7602              1479.8384              1486.8874
 Red. masses --      1.2837                 1.0897                 1.0788
 Frc consts  --      1.5744                 1.4060                 1.4052
 IR Inten    --     18.7200                 7.9388                 3.2553

                     64                     65                     66
                      A                      A                      A
 Frequencies --   1493.5608              1495.1393              1501.9669
 Red. masses --      1.1123                 1.0978                 1.0848
 Frc consts  --      1.4619                 1.4459                 1.4418
 IR Inten    --     10.3997                 9.1656                 0.6136

                     67                     68                     69
                      A                      A                      A
 Frequencies --   1504.4252              1514.6542              1526.8824
 Red. masses --      1.0991                 1.1017                 1.0857
 Frc consts  --      1.4657                 1.4892                 1.4913
 IR Inten    --     11.7928                 8.3130                 4.6287

                     70                     71                     72
                      A                      A                      A
 Frequencies --   3017.2423              3019.9876              3035.7105
 Red. masses --      1.0692                 1.0703                 1.0846
 Frc consts  --      5.7349                 5.7513                 5.8891
 IR Inten    --     34.7355               102.6643                97.6100

                     73                     74                     75
                      A                      A                      A
 Frequencies --   3053.3348              3064.5689              3065.7252
 Red. masses --      1.0729                 1.0687                 1.0770
 Frc consts  --      5.8932                 5.9132                 5.9638
 IR Inten    --      2.8421                24.9214                33.0427

                     76                     77                     78
                      A                      A                      A
 Frequencies --   3070.4754              3075.8000              3081.9496
 Red. masses --      1.0651                 1.0655                 1.0643
 Frc consts  --      5.9162                 5.9390                 5.9564
 IR Inten    --     81.8013                16.8450                34.3794

                     79                     80                     81
                      A                      A                      A
 Frequencies --   3086.0929              3118.1134              3119.5315
 Red. masses --      1.0623                 1.1009                 1.0992
 Frc consts  --      5.9611                 6.3061                 6.3026
 IR Inten    --     50.3922                51.7118                26.6388

                     82                     83                     84
                      A                      A                      A
 Frequencies --   3130.4396              3133.3003              3134.6408
 Red. masses --      1.0944                 1.0955                 1.1002
 Frc consts  --      6.3189                 6.3365                 6.3696
 IR Inten    --     52.3756                44.5385                32.6915

                     85                     86                     87
                      A                      A                      A
 Frequencies --   3137.4101              3143.3236              3150.2592
 Red. masses --      1.1006                 1.1005                 1.0952
 Frc consts  --      6.3832                 6.4066                 6.4040
 IR Inten    --     51.5087                63.5832                 8.3090

 - Thermochemistry -
 -------------------
 Temperature   298.150 Kelvin.  Pressure   1.00000 Atm.
 Atom     1 has atomic number  6 and mass  12.00000

 Molecular mass:   186.12559 amu.
 Principal axes and moments of inertia in atomic units:
                           1         2         3
     Eigenvalues --   871.047364409.618074948.47481
           X            0.99997   0.00748   0.00133
           Y           -0.00749   0.99994   0.00823
           Z           -0.00127  -0.00824   0.99997
 This molecule is an asymmetric top.
 Rotational symmetry number  1.
 Warning -- assumption of classical behavior for rotation
           may cause significant error
 Rotational temperatures (Kelvin)      0.09944     0.01964     0.01750
 Rotational constants (GHZ):           2.07192     0.40927     0.36471
 Zero-point vibrational energy     736452.1 (Joules/Mol)
                                  176.01627 (Kcal/Mol)
 Warning -- explicit consideration of  17 degrees of freedom as
           vibrations may cause significant error
 Vibrational temperatures:     42.86    87.68   139.50   166.94   263.98
          (Kelvin)            282.18   353.75   383.21   409.76   510.34
                              545.76   626.53   646.43   683.15   724.07
                              762.38   872.75   904.75   943.60  1126.12
                             1193.16  1208.62  1260.69  1282.94  1296.26
                             1325.75  1357.12  1387.13  1419.22  1435.41
                             1447.78  1521.89  1537.55  1547.54  1564.33
                             1602.17  1653.40  1665.51  1671.90  1686.79
                             1713.26  1741.68  1746.94  1795.03  1796.50
                             1850.29  1873.75  1882.05  1912.49  1924.59
                             1936.78  1942.94  1969.26  1975.24  1988.55
                             2002.04  2020.37  2029.30  2043.07  2068.13
                             2075.81  2129.16  2139.30  2148.90  2151.17
                             2161.00  2164.53  2179.25  2196.84  4341.14
                             4345.09  4367.71  4393.07  4409.23  4410.89
                             4417.73  4425.39  4434.24  4440.20  4486.27
                             4488.31  4504.00  4508.12  4510.05  4514.03
                             4522.54  4532.52

 Zero-point correction=                           0.280500 (Hartree/Particle)
 Thermal correction to Energy=                    0.292453
 Thermal correction to Enthalpy=                  0.293397
 Thermal correction to Gibbs Free Energy=         0.241613
 Sum of electronic and zero-point Energies=           -617.213362
 Sum of electronic and thermal Energies=              -617.201409
 Sum of electronic and thermal Enthalpies=            -617.200465
 Sum of electronic and thermal Free Energies=         -617.252249

                     E (Thermal)             CV                S
                      KCal/Mol        Cal/Mol-Kelvin    Cal/Mol-Kelvin
 Total                  183.517             46.965            108.988
 Electronic               0.000              0.000              0.000
 Translational            0.889              2.981             41.570
 Rotational               0.889              2.981             31.320
 Vibrational            181.739             41.003             36.099
 Vibration     1          0.594              1.984              5.844
 Vibration     2          0.597              1.973              4.427
 Vibration     3          0.603              1.951              3.515
 Vibration     4          0.608              1.936              3.165
 Vibration     5          0.631              1.862              2.293
 Vibration     6          0.636              1.845              2.169
 Vibration     7          0.660              1.770              1.760
 Vibration     8          0.672              1.735              1.620
 Vibration     9          0.683              1.702              1.505
 Vibration    10          0.731              1.566              1.145
 Vibration    11          0.749              1.514              1.042
 Vibration    12          0.796              1.393              0.841
 Vibration    13          0.808              1.362              0.798
 Vibration    14          0.832              1.306              0.724
 Vibration    15          0.859              1.243              0.650
 Vibration    16          0.885              1.184              0.587
 Vibration    17          0.965              1.018              0.438

                           ! Non-Optimized Parameters !
 Normal termination of Gaussian 16 at Mon Nov  5 01:08:24 2018.
