 Gaussian 16, Revision A.03,
 Gaussian 16:  ES64L-G16RevA.03 25-Dec-2016

 ----------------------------------------------------------------------
 #M062X/6-311++G(2d,2p) opt=ModRedundant freq=noraman SCRF=(Solvent=Wat
 er)
 ----------------------------------------------------------------------

 -----------------------------
 2SO_1_e4_D_PHI.inp_extract_23
 -----------------------------
 Symbolic Z-matrix:
 Charge =  0 Multiplicity = 1

 SCF Done:  E(RM062X) =  -617.495326939     A.U. after   12 cycles
 SCF Done:  E(RM062X) =  -617.496831799     A.U. after   10 cycles
 SCF Done:  E(RM062X) =  -617.497061704     A.U. after   10 cycles
 SCF Done:  E(RM062X) =  -617.497202494     A.U. after   10 cycles
 SCF Done:  E(RM062X) =  -617.497231533     A.U. after    8 cycles
 SCF Done:  E(RM062X) =  -617.497237403     A.U. after    8 cycles
 SCF Done:  E(RM062X) =  -617.497237638     A.U. after    6 cycles
 Optimization completed.
    -- Stationary point found.
 Normal termination of Gaussian 16 at Mon Nov  5 00:11:23 2018.

 ----------------------------------------------------------------------
 #N Geom=AllCheck Guess=TCheck SCRF=Check GenChk RM062X/6-311++G(2d,2p)
  Freq
 ----------------------------------------------------------------------

 Structure from the checkpoint file:  "2SO_1_e4_D_PHI.inp_extract_23.chk"
 -----------------------------
 2SO_1_e4_D_PHI.inp_extract_23
 -----------------------------
 Charge =  0 Multiplicity = 1

                         Standard orientation:
 ---------------------------------------------------------------------
 Center     Atomic      Atomic             Coordinates (Angstroms)
 Number     Number       Type             X           Y           Z
 ---------------------------------------------------------------------
      1          6           0        1.188288   -0.435795   -0.255689
      2          6           0       -3.852442    0.534827    0.465604
      3          6           0       -1.179929   -0.284933   -0.518012
      4          6           0       -2.486618    1.071710    0.904676
      5          6           0       -3.657595   -0.573868   -0.581936
      6          6           0        1.524144    1.050043   -0.284853
      7          6           0        2.175233   -1.175770    0.636610
      8          6           0        3.877596    0.393094    0.245817
      9          8           0        3.506247   -0.979405    0.202363
     10          6           0        2.994487    1.228757   -0.665834
     11          8           0       -0.099841   -0.718703    0.270772
     12          6           0       -2.326283   -1.276062   -0.333884
     13          8           0       -1.567273    1.030396   -0.182940
     14          1           0        1.260895   -0.846442   -1.269952
     15          1           0       -4.461409    1.339336    0.055375
     16          1           0       -4.373904    0.144960    1.340844
     17          1           0       -0.869603   -0.230146   -1.564233
     18          1           0       -2.542848    2.110106    1.220910
     19          1           0       -2.085774    0.490038    1.738168
     20          1           0       -3.647370   -0.139563   -1.582756
     21          1           0       -4.480929   -1.284852   -0.551290
     22          1           0        0.870634    1.576846   -0.979137
     23          1           0        1.341427    1.460840    0.712181
     24          1           0        1.980664   -2.246079    0.609624
     25          1           0        2.055589   -0.821525    1.668297
     26          1           0        3.801939    0.753672    1.278960
     27          1           0        4.920848    0.435968   -0.059279
     28          1           0        3.284567    2.277190   -0.595901
     29          1           0        3.153933    0.911377   -1.698723
     30          1           0       -2.289676   -1.663618    0.686417
     31          1           0       -2.173329   -2.118435   -1.006048
 ---------------------------------------------------------------------

 SCF Done:  E(RM062X) =  -617.497237638     A.U. after    1 cycles

 The electronic state is 1-A.
 Alpha  occ. eigenvalues --  -19.63403 -19.63183 -19.62848 -10.63637 -10.58821
 Alpha  occ. eigenvalues --  -10.58132 -10.58051 -10.57845 -10.53232 -10.53207
 Alpha  occ. eigenvalues --  -10.53161 -10.53025 -10.52883  -1.19985  -1.16719
 Alpha  occ. eigenvalues --   -1.13820  -0.90781  -0.89671  -0.87398  -0.84175
 Alpha  occ. eigenvalues --   -0.75033  -0.74596  -0.72772  -0.70435  -0.65960
 Alpha  occ. eigenvalues --   -0.62620  -0.60376  -0.59010  -0.57773  -0.56892
 Alpha  occ. eigenvalues --   -0.55246  -0.53046  -0.51822  -0.50183  -0.49411
 Alpha  occ. eigenvalues --   -0.47890  -0.47106  -0.46023  -0.45453  -0.44207
 Alpha  occ. eigenvalues --   -0.43838  -0.42839  -0.41122  -0.40610  -0.39505
 Alpha  occ. eigenvalues --   -0.38320  -0.37815  -0.36466  -0.34492  -0.33994
 Alpha  occ. eigenvalues --   -0.32208
 Alpha virt. eigenvalues --   -0.00063   0.00756   0.00787   0.01047   0.02143
 Alpha virt. eigenvalues --    0.02385   0.02573   0.03478   0.03560   0.04238
 Alpha virt. eigenvalues --    0.04501   0.04807   0.05505   0.05830   0.06875

 Mulliken charges:
               1
     1  C   -0.097218
     2  C   -0.514630
     3  C   -0.105908
     4  C   -0.030857
     5  C   -0.191532
     6  C   -0.189980
     7  C   -0.261351
     8  C   -0.217119
     9  O   -0.342503
    10  C   -0.457321
    11  O   -0.311212
    12  C   -0.358848
    13  O   -0.271451
    14  H    0.244129
    15  H    0.160869
    16  H    0.147125
    17  H    0.241376
    18  H    0.198906
    19  H    0.145212
    20  H    0.153812
    21  H    0.195988
    22  H    0.183405
    23  H    0.228591
    24  H    0.198675
    25  H    0.189964
    26  H    0.140760
    27  H    0.209035
    28  H    0.171117
    29  H    0.170260
    30  H    0.203997
    31  H    0.166708
 Sum of Mulliken charges =   0.00000

 Dipole moment (field-independent basis, Debye):
    X=             -1.8503    Y=              0.9453    Z=             -0.2590  Tot=              2.0939
 Quadrupole moment (field-independent basis, Debye-Ang):
   XX=            -77.4751   YY=            -81.6768   ZZ=            -77.9761
   XY=              8.8386   XZ=             -1.4119   YZ=              2.3576

  Exact polarizability: 177.422   0.976 156.897  -1.996   1.947 151.660
 Approx polarizability: 146.516  -0.237 142.566  -2.572   0.762 142.533

                      1                      2                      3
                      A                      A                      A
 Frequencies --     41.4278                49.7956                78.4100
 Red. masses --      3.4843                 3.7656                 3.7692
 Frc consts  --      0.0035                 0.0055                 0.0137
 IR Inten    --      2.5359                 0.3086                 3.3839

                      4                      5                      6
                      A                      A                      A
 Frequencies --    122.9881               183.7787               239.0097
 Red. masses --      3.0155                 2.0073                 2.9855
 Frc consts  --      0.0269                 0.0399                 0.1005
 IR Inten    --      1.7660                 0.4472                 3.8003

                      7                      8                      9
                      A                      A                      A
 Frequencies --    250.3210               258.4683               268.6203
 Red. masses --      2.0965                 2.7893                 3.8096
 Frc consts  --      0.0774                 0.1098                 0.1620
 IR Inten    --      5.1859                 0.4388                 2.5888

                     10                     11                     12
                      A                      A                      A
 Frequencies --    348.5104               388.7712               441.0437
 Red. masses --      2.5701                 2.3213                 4.0192
 Frc consts  --      0.1839                 0.2067                 0.4606
 IR Inten    --      5.2018                19.4072                 2.7694

                     13                     14                     15
                      A                      A                      A
 Frequencies --    454.3191               470.7800               515.2995
 Red. masses --      2.8663                 2.8042                 2.5491
 Frc consts  --      0.3486                 0.3662                 0.3988
 IR Inten    --      4.6039                 0.1692                 7.7789

                     16                     17                     18
                      A                      A                      A
 Frequencies --    547.6738               598.5374               632.7242
 Red. masses --      3.6188                 3.5497                 1.9907
 Frc consts  --      0.6395                 0.7493                 0.4695
 IR Inten    --      3.2010                12.9213                 9.1687

                     19                     20                     21
                      A                      A                      A
 Frequencies --    659.8068               784.8607               827.7506
 Red. masses --      3.4121                 1.2903                 2.2232
 Frc consts  --      0.8752                 0.4683                 0.8975
 IR Inten    --     10.8047                 5.4138                 0.4810

                     22                     23                     24
                      A                      A                      A
 Frequencies --    845.5604               878.0664               897.0111
 Red. masses --      2.5371                 1.3961                 2.4806
 Frc consts  --      1.0687                 0.6342                 1.1760
 IR Inten    --      8.7642                11.7759                19.8043

                     25                     26                     27
                      A                      A                      A
 Frequencies --    898.2221               917.5637               943.0134
 Red. masses --      2.5087                 2.1889                 2.1996
 Frc consts  --      1.1925                 1.0858                 1.1525
 IR Inten    --      4.6140                37.9651                43.9012

                     28                     29                     30
                      A                      A                      A
 Frequencies --    969.3412               988.9037               997.7602
 Red. masses --      1.8806                 2.2043                 1.5300
 Frc consts  --      1.0411                 1.2701                 0.8974
 IR Inten    --      7.0503                19.7570                 8.4212

                     31                     32                     33
                      A                      A                      A
 Frequencies --   1009.7012              1056.5281              1071.4262
 Red. masses --      1.9332                 1.6923                 3.5051
 Frc consts  --      1.1612                 1.1130                 2.3707
 IR Inten    --      5.4315                 1.6576               251.1944

                     34                     35                     36
                      A                      A                      A
 Frequencies --   1075.9192              1085.9806              1118.5961
 Red. masses --      1.8607                 2.2978                 4.2030
 Frc consts  --      1.2691                 1.5966                 3.0985
 IR Inten    --    103.2010                28.1976               271.6617

                     37                     38                     39
                      A                      A                      A
 Frequencies --   1150.8421              1152.6257              1161.9107
 Red. masses --      2.6158                 3.0681                 3.2700
 Frc consts  --      2.0412                 2.4016                 2.6010
 IR Inten    --     43.1381                38.1349               287.8139

                     40                     41                     42
                      A                      A                      A
 Frequencies --   1178.5736              1186.7152              1210.7605
 Red. masses --      2.2264                 2.4059                 1.4948
 Frc consts  --      1.8221                 1.9963                 1.2911
 IR Inten    --     15.8696                30.2299                41.6790

                     43                     44                     45
                      A                      A                      A
 Frequencies --   1221.0834              1245.1330              1248.5711
 Red. masses --      1.5177                 1.6085                 1.5125
 Frc consts  --      1.3333                 1.4693                 1.3892
 IR Inten    --      8.2926                45.9925                14.3160

                     46                     47                     48
                      A                      A                      A
 Frequencies --   1290.1151              1302.6833              1308.1917
 Red. masses --      1.2018                 1.1746                 1.1756
 Frc consts  --      1.1786                 1.1744                 1.1854
 IR Inten    --      5.0773                15.8484                 6.6306

                     49                     50                     51
                      A                      A                      A
 Frequencies --   1330.7473              1340.1979              1347.8764
 Red. masses --      1.2794                 1.2212                 1.2949
 Frc consts  --      1.3349                 1.2923                 1.3861
 IR Inten    --     10.0834                 4.3634                 6.9446

                     52                     53                     54
                      A                      A                      A
 Frequencies --   1352.0329              1367.2250              1374.3862
 Red. masses --      1.2563                 1.4289                 1.3990
 Frc consts  --      1.3530                 1.5737                 1.5570
 IR Inten    --     13.9619                 2.6887                 0.3110

                     55                     56                     57
                      A                      A                      A
 Frequencies --   1382.3727              1399.4308              1403.3656
 Red. masses --      1.4469                 1.3297                 1.3924
 Frc consts  --      1.6291                 1.5343                 1.6157
 IR Inten    --      7.3073                 6.7129                10.4280

                     58                     59                     60
                      A                      A                      A
 Frequencies --   1407.8388              1419.9767              1425.9502
 Red. masses --      1.4715                 1.4455                 1.3439
 Frc consts  --      1.7184                 1.7172                 1.6101
 IR Inten    --     38.6937                27.7388                 3.5292

                     61                     62                     63
                      A                      A                      A
 Frequencies --   1443.7088              1480.4079              1488.5184
 Red. masses --      1.4197                 1.0934                 1.0782
 Frc consts  --      1.7434                 1.4119                 1.4076
 IR Inten    --      7.7623                 7.9541                 2.4803

                     64                     65                     66
                      A                      A                      A
 Frequencies --   1493.2505              1494.1720              1501.9302
 Red. masses --      1.1121                 1.1006                 1.0863
 Frc consts  --      1.4610                 1.4477                 1.4438
 IR Inten    --     18.2813                 2.8015                 0.6892

                     67                     68                     69
                      A                      A                      A
 Frequencies --   1504.7285              1514.0597              1526.2468
 Red. masses --      1.0979                 1.1016                 1.0863
 Frc consts  --      1.4646                 1.4879                 1.4909
 IR Inten    --      9.8621                 8.3791                 4.2957

                     70                     71                     72
                      A                      A                      A
 Frequencies --   3017.3281              3021.4637              3028.1787
 Red. masses --      1.0734                 1.0710                 1.0776
 Frc consts  --      5.7576                 5.7605                 5.8222
 IR Inten    --     15.8224                68.2034                96.7429

                     73                     74                     75
                      A                      A                      A
 Frequencies --   3060.0335              3060.6955              3069.9140
 Red. masses --      1.0670                 1.0695                 1.0618
 Frc consts  --      5.8869                 5.9029                 5.8957
 IR Inten    --     43.6467                38.4795                42.9145

                     76                     77                     78
                      A                      A                      A
 Frequencies --   3071.5561              3075.4821              3078.5759
 Red. masses --      1.0807                 1.0702                 1.0637
 Frc consts  --      6.0072                 5.9639                 5.9397
 IR Inten    --     40.7779                 4.8243                48.5681

                     79                     80                     81
                      A                      A                      A
 Frequencies --   3081.9582              3116.8332              3118.3175
 Red. masses --      1.0632                 1.0993                 1.0996
 Frc consts  --      5.9500                 6.2923                 6.2998
 IR Inten    --     50.3596                31.1437                40.2785

                     82                     83                     84
                      A                      A                      A
 Frequencies --   3124.4318              3131.7955              3132.7674
 Red. masses --      1.0999                 1.1009                 1.0946
 Frc consts  --      6.3260                 6.3620                 6.3294
 IR Inten    --     42.7189                41.8397                49.0641

                     85                     86                     87
                      A                      A                      A
 Frequencies --   3133.3230              3135.2044              3143.8467
 Red. masses --      1.1006                 1.0956                 1.0998
 Frc consts  --      6.3661                 6.3452                 6.4047
 IR Inten    --     50.5663                40.1396                47.9485

 - Thermochemistry -
 -------------------
 Temperature   298.150 Kelvin.  Pressure   1.00000 Atm.
 Atom     1 has atomic number  6 and mass  12.00000

 Molecular mass:   186.12559 amu.
 Principal axes and moments of inertia in atomic units:
                           1         2         3
     Eigenvalues --   814.782574812.393735195.83164
           X            0.99993   0.01182  -0.00162
           Y           -0.01179   0.99979   0.01675
           Z            0.00182  -0.01673   0.99986
 This molecule is an asymmetric top.
 Rotational symmetry number  1.
 Warning -- assumption of classical behavior for rotation
           may cause significant error
 Rotational temperatures (Kelvin)      0.10630     0.01800     0.01667
 Rotational constants (GHZ):           2.21500     0.37502     0.34734
 Zero-point vibrational energy     736743.1 (Joules/Mol)
                                  176.08582 (Kcal/Mol)
 Warning -- explicit consideration of  17 degrees of freedom as
           vibrations may cause significant error
 Vibrational temperatures:     59.61    71.64   112.81   176.95   264.42
          (Kelvin)            343.88   360.16   371.88   386.48   501.43
                              559.35   634.56   653.66   677.35   741.40
                              787.98   861.16   910.35   949.31  1129.24
                             1190.95  1216.57  1263.34  1290.60  1292.34
                             1320.17  1356.79  1394.67  1422.81  1435.55
                             1452.73  1520.11  1541.54  1548.01  1562.48
                             1609.41  1655.81  1658.37  1671.73  1695.70
                             1707.42  1742.01  1756.87  1791.47  1796.42
                             1856.19  1874.27  1882.20  1914.65  1928.25
                             1939.29  1945.27  1967.13  1977.44  1988.93
                             2013.47  2019.13  2025.57  2043.03  2051.62
                             2077.18  2129.98  2141.65  2148.45  2149.78
                             2160.94  2164.97  2178.39  2195.93  4341.26
                             4347.21  4356.87  4402.71  4403.66  4416.92
                             4419.28  4424.93  4429.38  4434.25  4484.43
                             4486.56  4495.36  4505.96  4507.35  4508.15
                             4510.86  4523.29

 Zero-point correction=                           0.280611 (Hartree/Particle)
 Thermal correction to Energy=                    0.292513
 Thermal correction to Enthalpy=                  0.293457
 Thermal correction to Gibbs Free Energy=         0.241783
 Sum of electronic and zero-point Energies=           -617.216627
 Sum of electronic and thermal Energies=              -617.204725
 Sum of electronic and thermal Enthalpies=            -617.203781
 Sum of electronic and thermal Free Energies=         -617.255454

                     E (Thermal)             CV                S
                      KCal/Mol        Cal/Mol-Kelvin    Cal/Mol-Kelvin
 Total                  183.554             46.822            108.756
 Electronic               0.000              0.000              0.000
 Translational            0.889              2.981             41.570
 Rotational               0.889              2.981             31.389
 Vibrational            181.777             40.860             35.797
 Vibration     1          0.594              1.981              5.190
 Vibration     2          0.595              1.978              4.825
 Vibration     3          0.600              1.964              3.930
 Vibration     4          0.610              1.930              3.053
 Vibration     5          0.631              1.862              2.290
 Vibration     6          0.657              1.781              1.810
 Vibration     7          0.663              1.762              1.728
 Vibration     8          0.667              1.748              1.672
 Vibration     9          0.673              1.731              1.605
 Vibration    10          0.726              1.578              1.173
 Vibration    11          0.757              1.494              1.005
 Vibration    12          0.801              1.381              0.823
 Vibration    13          0.813              1.351              0.783
 Vibration    14          0.828              1.315              0.735
 Vibration    15          0.870              1.216              0.621
 Vibration    16          0.903              1.145              0.549
 Vibration    17          0.957              1.035              0.452

                           ! Non-Optimized Parameters !
 Normal termination of Gaussian 16 at Mon Nov  5 01:03:22 2018.
