 Gaussian 16, Revision A.03,
 Gaussian 16:  ES64L-G16RevA.03 25-Dec-2016

 ----------------------------------------------------------------------
 #M062X/6-311++G(2d,2p) opt=ModRedundant freq=noraman SCRF=(Solvent=Wat
 er)
 ----------------------------------------------------------------------

 -----------------------------
 2SO_1_e4_D_PHI.inp_extract_19
 -----------------------------
 Symbolic Z-matrix:
 Charge =  0 Multiplicity = 1

 SCF Done:  E(RM062X) =  -617.491945208     A.U. after   12 cycles
 SCF Done:  E(RM062X) =  -617.493304582     A.U. after   10 cycles
 SCF Done:  E(RM062X) =  -617.493405188     A.U. after    9 cycles
 SCF Done:  E(RM062X) =  -617.493461463     A.U. after    9 cycles
 SCF Done:  E(RM062X) =  -617.493477640     A.U. after    9 cycles
 SCF Done:  E(RM062X) =  -617.493489466     A.U. after    8 cycles
 SCF Done:  E(RM062X) =  -617.493490872     A.U. after    8 cycles
 SCF Done:  E(RM062X) =  -617.493490502     A.U. after    7 cycles
 SCF Done:  E(RM062X) =  -617.493490645     A.U. after    7 cycles
 SCF Done:  E(RM062X) =  -617.493490108     A.U. after    8 cycles
 SCF Done:  E(RM062X) =  -617.493490843     A.U. after    7 cycles
 SCF Done:  E(RM062X) =  -617.493490667     A.U. after    7 cycles
 Optimization completed.
    -- Stationary point found.
 Normal termination of Gaussian 16 at Mon Nov  5 00:23:41 2018.

 ----------------------------------------------------------------------
 #N Geom=AllCheck Guess=TCheck SCRF=Check GenChk RM062X/6-311++G(2d,2p)
  Freq
 ----------------------------------------------------------------------

 Structure from the checkpoint file:  "2SO_1_e4_D_PHI.inp_extract_19.chk"
 -----------------------------
 2SO_1_e4_D_PHI.inp_extract_19
 -----------------------------
 Charge =  0 Multiplicity = 1

                         Standard orientation:
 ---------------------------------------------------------------------
 Center     Atomic      Atomic             Coordinates (Angstroms)
 Number     Number       Type             X           Y           Z
 ---------------------------------------------------------------------
      1          6           0        1.150685    0.106515    0.072661
      2          6           0       -4.040668    0.218972   -0.132516
      3          6           0       -1.172427   -0.377736    0.269026
      4          6           0       -3.073608   -0.428735   -1.127224
      5          6           0       -3.282226    0.614160    1.145761
      6          6           0        1.884611   -1.210708    0.290798
      7          6           0        1.986378    1.026920   -0.805676
      8          6           0        4.003850    0.049563   -0.101092
      9          8           0        3.262701    1.255513   -0.241285
     10          6           0        3.292407   -0.930367    0.817894
     11          8           0       -0.088722   -0.078245   -0.595095
     12          6           0       -1.823242    0.900886    0.799927
     13          8           0       -2.078262   -1.180539   -0.433752
     14          1           0        0.992775    0.607355    1.034548
     15          1           0       -4.852106   -0.467095    0.106336
     16          1           0       -4.484479    1.098521   -0.600733
     17          1           0       -0.812574   -0.996726    1.094854
     18          1           0       -3.579725   -1.129954   -1.785229
     19          1           0       -2.588092    0.324882   -1.750877
     20          1           0       -3.319013   -0.204352    1.866443
     21          1           0       -3.744900    1.477208    1.620295
     22          1           0        1.332054   -1.855018    0.974908
     23          1           0        1.944117   -1.723869   -0.672932
     24          1           0        1.499214    1.994573   -0.908884
     25          1           0        2.085466    0.574074   -1.800505
     26          1           0        4.149497   -0.400519   -1.090718
     27          1           0        4.976019    0.334261    0.295294
     28          1           0        3.869370   -1.852679    0.885726
     29          1           0        3.238423   -0.500479    1.820394
     30          1           0       -1.761028    1.672675    0.030067
     31          1           0       -1.265316    1.256491    1.664701
 ---------------------------------------------------------------------

 SCF Done:  E(RM062X) =  -617.493490667     A.U. after    1 cycles

 The electronic state is 1-A.
 Alpha  occ. eigenvalues --  -19.63351 -19.63211 -19.63003 -10.63812 -10.58965
 Alpha  occ. eigenvalues --  -10.58180 -10.58104 -10.58074 -10.53341 -10.53321
 Alpha  occ. eigenvalues --  -10.53244 -10.53239 -10.52994  -1.20084  -1.16764
 Alpha  occ. eigenvalues --   -1.13932  -0.90498  -0.90037  -0.87341  -0.84396
 Alpha  occ. eigenvalues --   -0.74820  -0.74501  -0.73394  -0.70664  -0.65912
 Alpha  occ. eigenvalues --   -0.62651  -0.60845  -0.58902  -0.57635  -0.57210
 Alpha  occ. eigenvalues --   -0.55069  -0.53186  -0.51896  -0.50683  -0.49369
 Alpha  occ. eigenvalues --   -0.47926  -0.46757  -0.46046  -0.45789  -0.44773
 Alpha  occ. eigenvalues --   -0.43999  -0.43228  -0.41091  -0.40322  -0.40057
 Alpha  occ. eigenvalues --   -0.38478  -0.37975  -0.36889  -0.34714  -0.33711
 Alpha  occ. eigenvalues --   -0.31688
 Alpha virt. eigenvalues --   -0.00077   0.00762   0.00826   0.01091   0.02156
 Alpha virt. eigenvalues --    0.02331   0.02554   0.03549   0.03879   0.04253
 Alpha virt. eigenvalues --    0.04486   0.04580   0.05427   0.05991   0.06745

 Mulliken charges:
               1
     1  C   -0.112548
     2  C   -0.468496
     3  C   -0.308440
     4  C   -0.090435
     5  C   -0.277298
     6  C   -0.114262
     7  C   -0.297431
     8  C   -0.185043
     9  O   -0.324565
    10  C   -0.393057
    11  O   -0.317653
    12  C   -0.186963
    13  O   -0.274287
    14  H    0.255049
    15  H    0.161076
    16  H    0.147605
    17  H    0.277848
    18  H    0.205800
    19  H    0.161634
    20  H    0.158073
    21  H    0.180175
    22  H    0.146631
    23  H    0.211149
    24  H    0.190857
    25  H    0.189679
    26  H    0.140006
    27  H    0.205757
    28  H    0.184235
    29  H    0.161950
    30  H    0.223537
    31  H    0.149417
 Sum of Mulliken charges =  -0.00000

 Dipole moment (field-independent basis, Debye):
    X=             -0.8728    Y=              0.0671    Z=              1.7096  Tot=              1.9206
 Quadrupole moment (field-independent basis, Debye-Ang):
   XX=            -72.9443   YY=            -84.5870   ZZ=            -78.6109
   XY=            -11.4282   XZ=              0.9390   YZ=             -1.2520

  Exact polarizability: 180.690  -1.609 150.975   3.699   0.114 153.842
 Approx polarizability: 148.925  -0.123 140.407   3.124   0.222 142.299

                      1                      2                      3
                      A                      A                      A
 Frequencies --     13.7860                38.6217                59.7822
 Red. masses --      3.8617                 3.6408                 3.2850
 Frc consts  --      0.0004                 0.0032                 0.0069
 IR Inten    --      1.9348                 3.1538                 0.6315

                      4                      5                      6
                      A                      A                      A
 Frequencies --    117.1534               182.4453               200.7481
 Red. masses --      3.1593                 2.2814                 2.3060
 Frc consts  --      0.0255                 0.0447                 0.0548
 IR Inten    --      2.7070                 1.0697                 0.4635

                      7                      8                      9
                      A                      A                      A
 Frequencies --    247.9438               261.0013               308.7648
 Red. masses --      2.0171                 2.8608                 3.9105
 Frc consts  --      0.0731                 0.1148                 0.2197
 IR Inten    --      5.7203                 0.8242                10.3649

                     10                     11                     12
                      A                      A                      A
 Frequencies --    353.4264               410.0355               419.2678
 Red. masses --      2.5784                 2.5074                 3.3515
 Frc consts  --      0.1898                 0.2484                 0.3471
 IR Inten    --      4.4179                 8.3092                 6.4331

                     13                     14                     15
                      A                      A                      A
 Frequencies --    456.4564               465.6267               493.6956
 Red. masses --      4.0111                 2.8314                 3.9678
 Frc consts  --      0.4924                 0.3617                 0.5698
 IR Inten    --      5.4017                 2.2807                 9.8581

                     16                     17                     18
                      A                      A                      A
 Frequencies --    523.7054               567.2856               631.0542
 Red. masses --      2.9625                 2.4107                 1.9684
 Frc consts  --      0.4787                 0.4571                 0.4619
 IR Inten    --      4.9239                 2.1039                 7.4198

                     19                     20                     21
                      A                      A                      A
 Frequencies --    677.9136               782.1931               829.5986
 Red. masses --      3.5011                 1.2950                 2.2642
 Frc consts  --      0.9480                 0.4668                 0.9181
 IR Inten    --     12.9486                 4.2378                 0.6641

                     22                     23                     24
                      A                      A                      A
 Frequencies --    846.1393               875.4949               894.5959
 Red. masses --      2.4180                 1.3998                 2.4643
 Frc consts  --      1.0200                 0.6322                 1.1620
 IR Inten    --      1.8207                13.6259                 8.9483

                     25                     26                     27
                      A                      A                      A
 Frequencies --    900.4391               925.2394               942.2657
 Red. masses --      2.4480                 2.2611                 2.1909
 Frc consts  --      1.1694                 1.1405                 1.1461
 IR Inten    --      4.0440                49.3161                40.8605

                     28                     29                     30
                      A                      A                      A
 Frequencies --    966.8103               986.6547               997.9823
 Red. masses --      1.7896                 2.3498                 1.5108
 Frc consts  --      0.9856                 1.3478                 0.8866
 IR Inten    --      4.5757                28.0647                14.0870

                     31                     32                     33
                      A                      A                      A
 Frequencies --   1009.1918              1055.5519              1070.5060
 Red. masses --      1.9243                 1.6957                 2.4772
 Frc consts  --      1.1547                 1.1132                 1.6726
 IR Inten    --     10.7856                10.2851                28.9468

                     34                     35                     36
                      A                      A                      A
 Frequencies --   1081.9489              1091.1375              1123.3501
 Red. masses --      2.8452                 2.1431                 4.5726
 Frc consts  --      1.9623                 1.5033                 3.3998
 IR Inten    --    333.1791                54.2205               358.6219

                     37                     38                     39
                      A                      A                      A
 Frequencies --   1149.3734              1151.6694              1160.2866
 Red. masses --      3.3388                 2.8415                 2.4507
 Frc consts  --      2.5988                 2.2205                 1.9439
 IR Inten    --     53.6335                92.9871                76.5685

                     40                     41                     42
                      A                      A                      A
 Frequencies --   1171.3860              1190.5191              1209.5856
 Red. masses --      2.4329                 2.3612                 1.4761
 Frc consts  --      1.9669                 1.9717                 1.2725
 IR Inten    --     22.0902                41.2893                19.4641

                     43                     44                     45
                      A                      A                      A
 Frequencies --   1213.1393              1246.6922              1257.7555
 Red. masses --      1.4175                 1.5264                 1.7371
 Frc consts  --      1.2291                 1.3978                 1.6191
 IR Inten    --      4.6637                16.5957                89.7468

                     46                     47                     48
                      A                      A                      A
 Frequencies --   1289.9119              1303.6799              1309.3729
 Red. masses --      1.2098                 1.2043                 1.1738
 Frc consts  --      1.1860                 1.2060                 1.1857
 IR Inten    --     10.5240                 6.9283                 9.6481

                     49                     50                     51
                      A                      A                      A
 Frequencies --   1330.3775              1340.6884              1349.4453
 Red. masses --      1.2914                 1.2702                 1.2831
 Frc consts  --      1.3467                 1.3451                 1.3767
 IR Inten    --     10.8072                 1.8184                 2.7602

                     52                     53                     54
                      A                      A                      A
 Frequencies --   1358.3121              1368.4070              1372.1951
 Red. masses --      1.2396                 1.3945                 1.4175
 Frc consts  --      1.3475                 1.5385                 1.5725
 IR Inten    --     10.7548                 4.4649                 1.7272

                     55                     56                     57
                      A                      A                      A
 Frequencies --   1381.6964              1394.8796              1402.7024
 Red. masses --      1.4377                 1.4989                 1.2886
 Frc consts  --      1.6171                 1.7182                 1.4938
 IR Inten    --      9.0726                32.0906                 4.9619

                     58                     59                     60
                      A                      A                      A
 Frequencies --   1408.7889              1415.6953              1428.1678
 Red. masses --      1.3956                 1.3934                 1.3631
 Frc consts  --      1.6319                 1.6454                 1.6381
 IR Inten    --     41.8431                13.7759                 4.3355

                     61                     62                     63
                      A                      A                      A
 Frequencies --   1444.4643              1480.9730              1487.6698
 Red. masses --      1.3648                 1.0927                 1.0785
 Frc consts  --      1.6778                 1.4120                 1.4063
 IR Inten    --      7.7389                 7.9506                 2.5126

                     64                     65                     66
                      A                      A                      A
 Frequencies --   1495.0246              1495.2878              1501.6256
 Red. masses --      1.1112                 1.0950                 1.0880
 Frc consts  --      1.4633                 1.4425                 1.4454
 IR Inten    --      8.3315                10.5803                 0.6756

                     67                     68                     69
                      A                      A                      A
 Frequencies --   1504.4922              1514.6002              1525.9874
 Red. masses --      1.0972                 1.1016                 1.0866
 Frc consts  --      1.4633                 1.4889                 1.4908
 IR Inten    --     10.4483                 9.9467                 4.3507

                     70                     71                     72
                      A                      A                      A
 Frequencies --   3016.3685              3020.8584              3036.6860
 Red. masses --      1.0698                 1.0705                 1.0814
 Frc consts  --      5.7349                 5.7557                 5.8755
 IR Inten    --     34.0673                84.4618                41.0577

                     73                     74                     75
                      A                      A                      A
 Frequencies --   3060.4838              3063.9279              3068.8220
 Red. masses --      1.0651                 1.0733                 1.0787
 Frc consts  --      5.8779                 5.9363                 5.9855
 IR Inten    --     45.1230                58.8965                23.6961

                     76                     77                     78
                      A                      A                      A
 Frequencies --   3070.6521              3074.7935              3079.0393
 Red. masses --      1.0638                 1.0662                 1.0633
 Frc consts  --      5.9098                 5.9393                 5.9391
 IR Inten    --     25.1235                 9.4786                53.0957

                     79                     80                     81
                      A                      A                      A
 Frequencies --   3081.1727              3114.6711              3117.9492
 Red. masses --      1.0639                 1.0989                 1.0988
 Frc consts  --      5.9507                 6.2813                 6.2935
 IR Inten    --     45.8051                41.6492                29.6004

                     82                     83                     84
                      A                      A                      A
 Frequencies --   3120.9274              3131.1916              3132.4306
 Red. masses --      1.1028                 1.1012                 1.1005
 Frc consts  --      6.3287                 6.3613                 6.3621
 IR Inten    --     53.4333                38.5350                68.3506

                     85                     86                     87
                      A                      A                      A
 Frequencies --   3132.9529              3135.4365              3147.8571
 Red. masses --      1.0951                 1.0954                 1.1000
 Frc consts  --      6.3333                 6.3451                 6.4223
 IR Inten    --     30.0845                40.5532                45.6576

 - Thermochemistry -
 -------------------
 Temperature   298.150 Kelvin.  Pressure   1.00000 Atm.
 Atom     1 has atomic number  6 and mass  12.00000

 Molecular mass:   186.12559 amu.
 Principal axes and moments of inertia in atomic units:
                           1         2         3
     Eigenvalues --   813.236625119.587235253.21423
           X            0.99989  -0.01466   0.00034
           Y            0.01467   0.99949  -0.02853
           Z            0.00008   0.02853   0.99959
 This molecule is an asymmetric top.
 Rotational symmetry number  1.
 Warning -- assumption of classical behavior for rotation
           may cause significant error
 Rotational temperatures (Kelvin)      0.10651     0.01692     0.01649
 Rotational constants (GHZ):           2.21921     0.35252     0.34355
 Zero-point vibrational energy     736115.4 (Joules/Mol)
                                  175.93581 (Kcal/Mol)
 Warning -- explicit consideration of  17 degrees of freedom as
           vibrations may cause significant error
 Vibrational temperatures:     19.83    55.57    86.01   168.56   262.50
          (Kelvin)            288.83   356.74   375.52   444.24   508.50
                              589.95   603.23   656.74   669.93   710.32
                              753.50   816.20   907.95   975.37  1125.40
                             1193.61  1217.41  1259.64  1287.12  1295.53
                             1331.21  1355.71  1391.02  1419.58  1435.87
                             1452.00  1518.70  1540.22  1556.68  1569.90
                             1616.25  1653.69  1657.00  1669.39  1685.36
                             1712.89  1740.32  1745.44  1793.71  1809.63
                             1855.90  1875.70  1883.90  1914.12  1928.95
                             1941.55  1954.31  1968.83  1974.28  1987.95
                             2006.92  2018.18  2026.93  2036.87  2054.81
                             2078.26  2130.79  2140.43  2151.01  2151.39
                             2160.50  2164.63  2179.17  2195.56  4339.88
                             4346.34  4369.11  4403.35  4408.31  4415.35
                             4417.98  4423.94  4430.05  4433.12  4481.32
                             4486.03  4490.32  4505.09  4506.87  4507.62
                             4511.19  4529.06

 Zero-point correction=                           0.280372 (Hartree/Particle)
 Thermal correction to Energy=                    0.292451
 Thermal correction to Enthalpy=                  0.293396
 Thermal correction to Gibbs Free Energy=         0.240013
 Sum of electronic and zero-point Energies=           -617.213119
 Sum of electronic and thermal Energies=              -617.201039
 Sum of electronic and thermal Enthalpies=            -617.200095
 Sum of electronic and thermal Free Energies=         -617.253477

                     E (Thermal)             CV                S
                      KCal/Mol        Cal/Mol-Kelvin    Cal/Mol-Kelvin
 Total                  183.516             46.958            112.352
 Electronic               0.000              0.000              0.000
 Translational            0.889              2.981             41.570
 Rotational               0.889              2.981             31.459
 Vibrational            181.739             40.997             39.324
 Vibration     1          0.593              1.986              7.373
 Vibration     2          0.594              1.981              5.329
 Vibration     3          0.597              1.973              4.464
 Vibration     4          0.608              1.935              3.147
 Vibration     5          0.630              1.864              2.303
 Vibration     6          0.638              1.839              2.126
 Vibration     7          0.662              1.766              1.745
 Vibration     8          0.669              1.744              1.655
 Vibration     9          0.698              1.657              1.369
 Vibration    10          0.730              1.568              1.151
 Vibration    11          0.774              1.448              0.926
 Vibration    12          0.782              1.428              0.894
 Vibration    13          0.815              1.347              0.776
 Vibration    14          0.823              1.326              0.750
 Vibration    15          0.849              1.264              0.674
 Vibration    16          0.879              1.198              0.601
 Vibration    17          0.923              1.102              0.509

 Optimization completed.
    -- Stationary point found.
 Normal termination of Gaussian 16 at Mon Nov  5 01:18:42 2018.
