 Gaussian 16, Revision A.03,
 Gaussian 16:  ES64L-G16RevA.03 25-Dec-2016

 ----------------------------------------------------------------------
 #M062X/6-311++G(2d,2p) opt=ModRedundant freq=noraman SCRF=(Solvent=Wat
 er)
 ----------------------------------------------------------------------

 -----------------------------
 2SO_1_e4_D_PHI.inp_extract_13
 -----------------------------
 Symbolic Z-matrix:
 Charge =  0 Multiplicity = 1

 SCF Done:  E(RM062X) =  -617.486182775     A.U. after   12 cycles
 SCF Done:  E(RM062X) =  -617.487405477     A.U. after   11 cycles
 SCF Done:  E(RM062X) =  -617.487753594     A.U. after   10 cycles
 SCF Done:  E(RM062X) =  -617.488039981     A.U. after   10 cycles
 SCF Done:  E(RM062X) =  -617.488147787     A.U. after   10 cycles
 SCF Done:  E(RM062X) =  -617.488173484     A.U. after   10 cycles
 SCF Done:  E(RM062X) =  -617.488179303     A.U. after    8 cycles
 SCF Done:  E(RM062X) =  -617.488180861     A.U. after    8 cycles
 SCF Done:  E(RM062X) =  -617.488181142     A.U. after    7 cycles
 Optimization completed.
    -- Stationary point found.
 Normal termination of Gaussian 16 at Mon Nov  5 00:16:29 2018.

 ----------------------------------------------------------------------
 #N Geom=AllCheck Guess=TCheck SCRF=Check GenChk RM062X/6-311++G(2d,2p)
  Freq
 ----------------------------------------------------------------------

 Structure from the checkpoint file:  "2SO_1_e4_D_PHI.inp_extract_13.chk"
 -----------------------------
 2SO_1_e4_D_PHI.inp_extract_13
 -----------------------------
 Charge =  0 Multiplicity = 1

                         Standard orientation:
 ---------------------------------------------------------------------
 Center     Atomic      Atomic             Coordinates (Angstroms)
 Number     Number       Type             X           Y           Z
 ---------------------------------------------------------------------
      1          6           0        0.963575   -0.166783    0.096580
      2          6           0       -3.446553    0.019346   -1.078820
      3          6           0       -1.350508   -0.007545    1.011327
      4          6           0       -2.591505   -1.167919   -0.621640
      5          6           0       -3.072654    1.258918   -0.252991
      6          6           0        1.660154    1.118722    0.524145
      7          6           0        1.969448   -1.313731    0.091510
      8          6           0        3.781317    0.114845   -0.338650
      9          8           0        3.061460   -1.036235   -0.762130
     10          6           0        2.895153    1.349023   -0.348880
     11          8           0       -0.052200   -0.576755    0.998243
     12          6           0       -1.587363    1.202343    0.100180
     13          8           0       -2.283036   -1.035611    0.762351
     14          1           0        0.578724   -0.067519   -0.921497
     15          1           0       -4.505236   -0.207208   -0.960664
     16          1           0       -3.266793    0.200416   -2.139367
     17          1           0       -1.540999    0.276970    2.046255
     18          1           0       -3.114309   -2.113775   -0.735982
     19          1           0       -1.662574   -1.231269   -1.195661
     20          1           0       -3.657300    1.282281    0.667483
     21          1           0       -3.297953    2.171894   -0.800614
     22          1           0        0.983305    1.969438    0.465653
     23          1           0        1.959021    1.004476    1.570017
     24          1           0        1.496590   -2.224127   -0.271556
     25          1           0        2.321331   -1.483045    1.116796
     26          1           0        4.175513   -0.058127    0.670213
     27          1           0        4.619515    0.219685   -1.024020
     28          1           0        3.461404    2.209633    0.007316
     29          1           0        2.591125    1.557627   -1.377006
     30          1           0       -1.010472    1.135384   -0.821452
     31          1           0       -1.267087    2.102761    0.619806
 ---------------------------------------------------------------------

 SCF Done:  E(RM062X) =  -617.488181142     A.U. after    1 cycles

 The electronic state is 1-A.
 Alpha  occ. eigenvalues --  -19.63185 -19.63126 -19.62955 -10.64017 -10.59022
 Alpha  occ. eigenvalues --  -10.58121 -10.58083 -10.58036 -10.53752 -10.53408
 Alpha  occ. eigenvalues --  -10.53332 -10.53203 -10.53006  -1.19711  -1.16752
 Alpha  occ. eigenvalues --   -1.13605  -0.90493  -0.90306  -0.87535  -0.84468
 Alpha  occ. eigenvalues --   -0.75149  -0.74858  -0.73404  -0.70022  -0.65992
 Alpha  occ. eigenvalues --   -0.62627  -0.60534  -0.59169  -0.57851  -0.57209
 Alpha  occ. eigenvalues --   -0.54688  -0.53087  -0.52198  -0.50982  -0.49640
 Alpha  occ. eigenvalues --   -0.48378  -0.47398  -0.45964  -0.45082  -0.44845
 Alpha  occ. eigenvalues --   -0.44314  -0.41438  -0.41138  -0.40844  -0.40145
 Alpha  occ. eigenvalues --   -0.38703  -0.37492  -0.36056  -0.35171  -0.33473
 Alpha  occ. eigenvalues --   -0.32285
 Alpha virt. eigenvalues --   -0.00184   0.00745   0.00824   0.01077   0.02174
 Alpha virt. eigenvalues --    0.02596   0.02620   0.03356   0.03829   0.04515
 Alpha virt. eigenvalues --    0.04635   0.04803   0.05582   0.06008   0.06978

 Mulliken charges:
               1
     1  C   -0.192142
     2  C   -0.372592
     3  C   -0.133332
     4  C   -0.108480
     5  C   -0.363212
     6  C   -0.175281
     7  C   -0.251355
     8  C   -0.223534
     9  O   -0.319246
    10  C   -0.373761
    11  O   -0.326341
    12  C   -0.291686
    13  O   -0.274264
    14  H    0.263947
    15  H    0.165886
    16  H    0.154026
    17  H    0.263854
    18  H    0.205023
    19  H    0.120001
    20  H    0.176702
    21  H    0.174857
    22  H    0.172183
    23  H    0.220208
    24  H    0.194739
    25  H    0.192171
    26  H    0.146572
    27  H    0.201012
    28  H    0.173506
    29  H    0.168401
    30  H    0.226588
    31  H    0.185550
 Sum of Mulliken charges =  -0.00000

 Dipole moment (field-independent basis, Debye):
    X=             -0.2987    Y=              4.0403    Z=             -1.4257  Tot=              4.2949
 Quadrupole moment (field-independent basis, Debye-Ang):
   XX=            -77.7065   YY=            -81.1663   ZZ=            -82.2903
   XY=              2.9282   XZ=              7.8893   YZ=              2.2768

  Exact polarizability: 176.182   2.397 157.715   0.975   0.897 151.053
 Approx polarizability: 147.738   2.425 141.287  -0.661   0.433 143.515

 ******    1 imaginary frequencies (negative Signs) ******

                      1                      2                      3
                      A                      A                      A
 Frequencies --    -56.3536                56.6517                80.6687
 Red. masses --      4.3843                 3.5033                 3.5372
 Frc consts  --      0.0082                 0.0066                 0.0136
 IR Inten    --      0.7184                 2.4963                 0.9372

                      4                      5                      6
                      A                      A                      A
 Frequencies --    108.5711               197.5252               216.1868
 Red. masses --      2.9353                 2.2731                 2.4067
 Frc consts  --      0.0204                 0.0523                 0.0663
 IR Inten    --      0.5173                 0.4973                 2.7119

                      7                      8                      9
                      A                      A                      A
 Frequencies --    245.9664               262.3811               291.0903
 Red. masses --      1.9941                 2.3496                 4.5154
 Frc consts  --      0.0711                 0.0953                 0.2254
 IR Inten    --      5.3948                 2.5574                 6.0372

                     10                     11                     12
                      A                      A                      A
 Frequencies --    357.4337               384.2763               434.2031
 Red. masses --      2.9135                 2.4885                 2.9133
 Frc consts  --      0.2193                 0.2165                 0.3236
 IR Inten    --     10.9168                 8.1030                 7.2820

                     13                     14                     15
                      A                      A                      A
 Frequencies --    454.4919               474.9335               506.7625
 Red. masses --      3.2013                 2.9918                 2.9857
 Frc consts  --      0.3896                 0.3976                 0.4518
 IR Inten    --      6.2338                 0.2119                 0.2760

                     16                     17                     18
                      A                      A                      A
 Frequencies --    528.3834               597.6692               630.5413
 Red. masses --      4.5194                 2.3359                 1.9866
 Frc consts  --      0.7434                 0.4916                 0.4654
 IR Inten    --      4.5967                17.6981                 6.4574

                     19                     20                     21
                      A                      A                      A
 Frequencies --    664.1003               781.9044               826.6784
 Red. masses --      4.1212                 1.3160                 2.1642
 Frc consts  --      1.0709                 0.4740                 0.8714
 IR Inten    --     16.8585                 4.5033                 2.1996

                     22                     23                     24
                      A                      A                      A
 Frequencies --    837.9957               874.3986               890.8510
 Red. masses --      2.6013                 1.4084                 2.8478
 Frc consts  --      1.0763                 0.6345                 1.3316
 IR Inten    --     11.0444                14.0511                 8.2462

                     25                     26                     27
                      A                      A                      A
 Frequencies --    899.2876               921.4673               942.4894
 Red. masses --      2.4377                 2.2163                 2.1835
 Frc consts  --      1.1615                 1.1087                 1.1428
 IR Inten    --     16.7827                46.1437                43.8567

                     28                     29                     30
                      A                      A                      A
 Frequencies --    955.6324               984.6504               999.8446
 Red. masses --      2.0412                 2.1605                 1.5400
 Frc consts  --      1.0983                 1.2341                 0.9071
 IR Inten    --     20.7792                29.9858                19.7694

                     31                     32                     33
                      A                      A                      A
 Frequencies --   1008.4174              1047.7343              1060.2589
 Red. masses --      1.9365                 2.8113                 1.8400
 Frc consts  --      1.1603                 1.8183                 1.2187
 IR Inten    --     18.6083                45.6815                26.1010

                     34                     35                     36
                      A                      A                      A
 Frequencies --   1072.4176              1083.5377              1104.1042
 Red. masses --      2.0689                 2.1113                 4.0586
 Frc consts  --      1.4019                 1.4605                 2.9151
 IR Inten    --    177.3904                43.3221               314.1241

                     37                     38                     39
                      A                      A                      A
 Frequencies --   1142.2748              1151.3004              1167.9186
 Red. masses --      2.3702                 2.9618                 2.6365
 Frc consts  --      1.8221                 2.3130                 2.1188
 IR Inten    --     16.4745               109.2288                46.1502

                     40                     41                     42
                      A                      A                      A
 Frequencies --   1174.9832              1192.7365              1210.7396
 Red. masses --      2.7308                 2.8614                 1.4613
 Frc consts  --      2.2213                 2.3984                 1.2621
 IR Inten    --    105.5939               111.0438                14.4035

                     43                     44                     45
                      A                      A                      A
 Frequencies --   1219.1565              1245.8756              1250.1962
 Red. masses --      1.4614                 1.6067                 1.5096
 Frc consts  --      1.2798                 1.4694                 1.3902
 IR Inten    --     28.0734                60.1707                12.1533

                     46                     47                     48
                      A                      A                      A
 Frequencies --   1295.5802              1303.6403              1308.3247
 Red. masses --      1.1837                 1.1707                 1.2216
 Frc consts  --      1.1707                 1.1722                 1.2320
 IR Inten    --      7.5167                22.2034                 3.4459

                     49                     50                     51
                      A                      A                      A
 Frequencies --   1331.1756              1341.9405              1352.4250
 Red. masses --      1.2822                 1.2523                 1.2544
 Frc consts  --      1.3387                 1.3287                 1.3518
 IR Inten    --      8.7569                 2.2662                 2.9618

                     52                     53                     54
                      A                      A                      A
 Frequencies --   1355.6462              1367.2192              1376.9819
 Red. masses --      1.2821                 1.4613                 1.3604
 Frc consts  --      1.3882                 1.6094                 1.5198
 IR Inten    --     10.5217                 4.9305                 8.4584

                     55                     56                     57
                      A                      A                      A
 Frequencies --   1383.1046              1390.2491              1403.1841
 Red. masses --      1.4173                 1.3871                 1.3102
 Frc consts  --      1.5974                 1.5796                 1.5199
 IR Inten    --     14.0226                22.3944                 1.6578

                     58                     59                     60
                      A                      A                      A
 Frequencies --   1412.9488              1422.6272              1427.9633
 Red. masses --      1.3723                 1.3797                 1.3802
 Frc consts  --      1.6141                 1.6452                 1.6582
 IR Inten    --     13.3464                17.9299                10.8530

                     61                     62                     63
                      A                      A                      A
 Frequencies --   1436.0238              1479.2135              1488.8441
 Red. masses --      1.3566                 1.0917                 1.0799
 Frc consts  --      1.6483                 1.4074                 1.4103
 IR Inten    --     11.5651                 7.4646                 2.8935

                     64                     65                     66
                      A                      A                      A
 Frequencies --   1492.2871              1498.9412              1501.8476
 Red. masses --      1.1056                 1.0952                 1.0908
 Frc consts  --      1.4506                 1.4498                 1.4496
 IR Inten    --     13.8997                 3.9857                 2.2476

                     67                     68                     69
                      A                      A                      A
 Frequencies --   1504.1135              1514.8408              1526.2714
 Red. masses --      1.0998                 1.1014                 1.0873
 Frc consts  --      1.4660                 1.4891                 1.4923
 IR Inten    --      6.8483                 9.4825                 5.6094

                     70                     71                     72
                      A                      A                      A
 Frequencies --   3021.2149              3023.2859              3051.0074
 Red. masses --      1.0696                 1.0694                 1.0704
 Frc consts  --      5.7523                 5.7588                 5.8708
 IR Inten    --     35.0161                95.1558                54.1663

                     73                     74                     75
                      A                      A                      A
 Frequencies --   3056.1144              3065.4657              3071.0314
 Red. masses --      1.0737                 1.0755                 1.0637
 Frc consts  --      5.9086                 5.9549                 5.9105
 IR Inten    --      4.7647                36.1595                74.0792

                     76                     77                     78
                      A                      A                      A
 Frequencies --   3079.3093              3082.2498              3091.5855
 Red. masses --      1.0604                 1.0677                 1.0867
 Frc consts  --      5.9242                 5.9764                 6.1198
 IR Inten    --     46.6659                29.3549                39.4074

                     79                     80                     81
                      A                      A                      A
 Frequencies --   3101.8564              3119.9689              3120.0696
 Red. masses --      1.0615                 1.1002                 1.0992
 Frc consts  --      6.0175                 6.3098                 6.3047
 IR Inten    --     32.3338                43.2751                32.5767

                     82                     83                     84
                      A                      A                      A
 Frequencies --   3132.7080              3133.3005              3134.6393
 Red. masses --      1.0960                 1.0959                 1.0994
 Frc consts  --      6.3374                 6.3388                 6.3646
 IR Inten    --     24.3982                50.8263                22.0283

                     85                     86                     87
                      A                      A                      A
 Frequencies --   3136.3854              3144.0472              3148.9231
 Red. masses --      1.0972                 1.0982                 1.1031
 Frc consts  --      6.3589                 6.3959                 6.4442
 IR Inten    --     58.8451                64.0412                38.6268

 - Thermochemistry -
 -------------------
 Temperature   298.150 Kelvin.  Pressure   1.00000 Atm.
 Atom     1 has atomic number  6 and mass  12.00000

 Molecular mass:   186.12559 amu.
 Principal axes and moments of inertia in atomic units:
                           1         2         3
     Eigenvalues --  1009.808824369.606044703.59033
           X            0.99993   0.00219   0.01193
           Y           -0.00243   0.99980   0.01993
           Z           -0.01189  -0.01996   0.99973
 This molecule is an asymmetric top.
 Rotational symmetry number  1.
 Warning -- assumption of classical behavior for rotation
           may cause significant error
 Rotational temperatures (Kelvin)      0.08577     0.01982     0.01841
 Rotational constants (GHZ):           1.78721     0.41302     0.38369
    1 imaginary frequencies ignored.
 Zero-point vibrational energy     736703.7 (Joules/Mol)
                                  176.07641 (Kcal/Mol)
 Warning -- explicit consideration of  16 degrees of freedom as
           vibrations may cause significant error
 Vibrational temperatures:     81.51   116.06   156.21   284.19   311.04
          (Kelvin)            353.89   377.51   418.81   514.27   552.89
                              624.72   653.91   683.32   729.12   760.23
                              859.91   907.21   955.49  1124.99  1189.41
                             1205.69  1258.06  1281.74  1293.87  1325.79
                             1356.03  1374.94  1416.69  1438.55  1450.89
                             1507.46  1525.48  1542.97  1558.97  1588.56
                             1643.48  1656.46  1680.37  1690.54  1716.08
                             1741.98  1754.09  1792.54  1798.75  1864.05
                             1875.65  1882.39  1915.26  1930.75  1945.84
                             1950.47  1967.12  1981.17  1989.98  2000.26
                             2018.87  2032.92  2046.84  2054.52  2066.12
                             2128.26  2142.11  2147.07  2156.64  2160.82
                             2164.08  2179.52  2195.96  4346.85  4349.83
                             4389.72  4397.07  4410.52  4418.53  4430.44
                             4434.67  4448.10  4462.88  4488.94  4489.08
                             4507.27  4508.12  4510.05  4512.56  4523.58
                             4530.60

 Zero-point correction=                           0.280596 (Hartree/Particle)
 Thermal correction to Energy=                    0.291662
 Thermal correction to Enthalpy=                  0.292607
 Thermal correction to Gibbs Free Energy=         0.243427
 Sum of electronic and zero-point Energies=           -617.207586
 Sum of electronic and thermal Energies=              -617.196519
 Sum of electronic and thermal Enthalpies=            -617.195575
 Sum of electronic and thermal Free Energies=         -617.244754

                     E (Thermal)             CV                S
                      KCal/Mol        Cal/Mol-Kelvin    Cal/Mol-Kelvin
 Total                  183.021             44.959            103.507
 Electronic               0.000              0.000              0.000
 Translational            0.889              2.981             41.570
 Rotational               0.889              2.981             31.407
 Vibrational            181.243             38.998             30.531
 Vibration     1          0.596              1.975              4.571
 Vibration     2          0.600              1.962              3.875
 Vibration     3          0.606              1.942              3.294
 Vibration     4          0.637              1.843              2.156
 Vibration     5          0.645              1.816              1.991
 Vibration     6          0.660              1.769              1.759
 Vibration     7          0.670              1.742              1.646
 Vibration     8          0.687              1.690              1.468
 Vibration     9          0.733              1.560              1.133
 Vibration    10          0.753              1.504              1.022
 Vibration    11          0.795              1.396              0.845
 Vibration    12          0.813              1.351              0.782
 Vibration    13          0.832              1.306              0.724
 Vibration    14          0.862              1.235              0.641
 Vibration    15          0.883              1.187              0.591
 Vibration    16          0.956              1.037              0.454

 Optimization completed.
    -- Stationary point found.
 Normal termination of Gaussian 16 at Mon Nov  5 01:19:25 2018.
