 Gaussian 16, Revision A.03,
 Gaussian 16:  ES64L-G16RevA.03 25-Dec-2016

 ----------------------------------------------------------------------
 #M062X/6-311++G(2d,2p) opt=ModRedundant freq=noraman SCRF=(Solvent=Wat
 er)
 ----------------------------------------------------------------------

 ----------------------------
 2SO_1_e4_D_PHI.inp_extract_5
 ----------------------------
 Symbolic Z-matrix:
 Charge =  0 Multiplicity = 1

 SCF Done:  E(RM062X) =  -617.488297685     A.U. after   12 cycles
 SCF Done:  E(RM062X) =  -617.489845478     A.U. after   11 cycles
 SCF Done:  E(RM062X) =  -617.490061525     A.U. after   10 cycles
 SCF Done:  E(RM062X) =  -617.490183764     A.U. after    9 cycles
 SCF Done:  E(RM062X) =  -617.490195247     A.U. after    8 cycles
 SCF Done:  E(RM062X) =  -617.490197521     A.U. after    8 cycles
 SCF Done:  E(RM062X) =  -617.490198229     A.U. after    7 cycles
 SCF Done:  E(RM062X) =  -617.490198471     A.U. after    7 cycles
 Optimization completed.
    -- Stationary point found.
 Normal termination of Gaussian 16 at Mon Nov  5 00:16:05 2018.

 ----------------------------------------------------------------------
 #N Geom=AllCheck Guess=TCheck SCRF=Check GenChk RM062X/6-311++G(2d,2p)
  Freq
 ----------------------------------------------------------------------

 Structure from the checkpoint file:  "2SO_1_e4_D_PHI.inp_extract_5.chk"
 ----------------------------
 2SO_1_e4_D_PHI.inp_extract_5
 ----------------------------
 Charge =  0 Multiplicity = 1

                         Standard orientation:
 ---------------------------------------------------------------------
 Center     Atomic      Atomic             Coordinates (Angstroms)
 Number     Number       Type             X           Y           Z
 ---------------------------------------------------------------------
      1          6           0       -0.974503    0.284667    0.023337
      2          6           0        3.460506   -0.826906    0.795573
      3          6           0        1.326713    0.411832   -0.824333
      4          6           0        1.967725   -1.150782    0.846018
      5          6           0        3.701044    0.393396   -0.112712
      6          6           0       -1.974557    1.264816    0.613430
      7          6           0       -1.665900   -0.587441   -1.021525
      8          6           0       -3.756555   -0.387612    0.027245
      9          8           0       -2.767166   -1.282346   -0.463654
     10          6           0       -3.198479    0.504832    1.124634
     11          8           0        0.067831    1.037902   -0.575195
     12          6           0        2.432410    1.239185   -0.182201
     13          8           0        1.364048   -0.933857   -0.430387
     14          1           0       -0.590723   -0.359752    0.816479
     15          1           0        4.017997   -1.687363    0.428550
     16          1           0        3.803913   -0.625291    1.810836
     17          1           0        1.455179    0.393571   -1.909069
     18          1           0        1.785787   -2.194284    1.089881
     19          1           0        1.465862   -0.539157    1.599298
     20          1           0        3.953466    0.059350   -1.120576
     21          1           0        4.541383    0.984311    0.245457
     22          1           0       -1.503713    1.841219    1.409718
     23          1           0       -2.274159    1.965124   -0.171284
     24          1           0       -0.978095   -1.334072   -1.411995
     25          1           0       -2.002057    0.055103   -1.845864
     26          1           0       -4.130097    0.225845   -0.802039
     27          1           0       -4.573190   -1.005705    0.394297
     28          1           0       -3.970405    1.198341    1.458659
     29          1           0       -2.921624   -0.116986    1.978721
     30          1           0        2.116701    1.546512    0.816547
     31          1           0        2.575640    2.143724   -0.770517
 ---------------------------------------------------------------------

 SCF Done:  E(RM062X) =  -617.490198471     A.U. after    1 cycles

 The electronic state is 1-A.
 Alpha  occ. eigenvalues --  -19.63707 -19.62967 -19.62622 -10.63791 -10.58513
 Alpha  occ. eigenvalues --  -10.58362 -10.57956 -10.57518 -10.53370 -10.53243
 Alpha  occ. eigenvalues --  -10.53194 -10.53125 -10.53085  -1.19905  -1.16432
 Alpha  occ. eigenvalues --   -1.13487  -0.90977  -0.89963  -0.87087  -0.84252
 Alpha  occ. eigenvalues --   -0.75125  -0.74461  -0.73447  -0.69792  -0.65609
 Alpha  occ. eigenvalues --   -0.62774  -0.60181  -0.59283  -0.58029  -0.56883
 Alpha  occ. eigenvalues --   -0.55124  -0.52847  -0.51733  -0.50501  -0.49545
 Alpha  occ. eigenvalues --   -0.47394  -0.46525  -0.45672  -0.45253  -0.44611
 Alpha  occ. eigenvalues --   -0.44195  -0.43877  -0.40926  -0.40354  -0.39254
 Alpha  occ. eigenvalues --   -0.39096  -0.37312  -0.36755  -0.34531  -0.34295
 Alpha  occ. eigenvalues --   -0.31019
 Alpha virt. eigenvalues --   -0.00152   0.00706   0.00878   0.01109   0.02153
 Alpha virt. eigenvalues --    0.02406   0.02610   0.03518   0.03529   0.04331
 Alpha virt. eigenvalues --    0.04532   0.04680   0.05539   0.05897   0.06873

 Mulliken charges:
               1
     1  C    0.008987
     2  C   -0.461425
     3  C   -0.492125
     4  C   -0.038873
     5  C   -0.235640
     6  C   -0.313218
     7  C   -0.305654
     8  C   -0.152272
     9  O   -0.313130
    10  C   -0.356467
    11  O   -0.254760
    12  C   -0.156932
    13  O   -0.257295
    14  H    0.243822
    15  H    0.163207
    16  H    0.155360
    17  H    0.240454
    18  H    0.211731
    19  H    0.136583
    20  H    0.157226
    21  H    0.185980
    22  H    0.159276
    23  H    0.205793
    24  H    0.218004
    25  H    0.185472
    26  H    0.137304
    27  H    0.208711
    28  H    0.188310
    29  H    0.158478
    30  H    0.188514
    31  H    0.184580
 Sum of Mulliken charges =  -0.00000

 Dipole moment (field-independent basis, Debye):
    X=              1.7198    Y=              1.4607    Z=              2.0666  Tot=              3.0597
 Quadrupole moment (field-independent basis, Debye-Ang):
   XX=            -70.0144   YY=            -85.8001   ZZ=            -77.7865
   XY=             -4.8322   XZ=             -0.6313   YZ=             -1.8277

  Exact polarizability: 176.410  -1.005 155.314  -3.029  -3.445 153.417
 Approx polarizability: 146.197  -1.301 143.302  -2.060  -2.888 142.336

 ******    1 imaginary frequencies (negative Signs) ******

                      1                      2                      3
                      A                      A                      A
 Frequencies --    -73.0252                58.6101                77.5952
 Red. masses --      3.7001                 3.4058                 3.9078
 Frc consts  --      0.0116                 0.0069                 0.0139
 IR Inten    --      3.1385                 1.8093                 1.3675

                      4                      5                      6
                      A                      A                      A
 Frequencies --    124.4755               180.3188               205.5649
 Red. masses --      3.1174                 2.0256                 2.4446
 Frc consts  --      0.0285                 0.0388                 0.0609
 IR Inten    --      1.2400                 0.8040                 6.3669

                      7                      8                      9
                      A                      A                      A
 Frequencies --    241.6064               256.0023               297.7689
 Red. masses --      3.3500                 2.0538                 4.1125
 Frc consts  --      0.1152                 0.0793                 0.2148
 IR Inten    --      0.1273                 2.1817                 6.4798

                     10                     11                     12
                      A                      A                      A
 Frequencies --    343.8764               378.2285               448.2897
 Red. masses --      2.8784                 2.5885                 3.6260
 Frc consts  --      0.2005                 0.2182                 0.4293
 IR Inten    --     20.2050                18.7735                 2.5256

                     13                     14                     15
                      A                      A                      A
 Frequencies --    452.3793               459.7053               505.3616
 Red. masses --      3.0773                 2.5144                 2.7356
 Frc consts  --      0.3710                 0.3131                 0.4116
 IR Inten    --      2.5919                 2.2521                 6.9011

                     16                     17                     18
                      A                      A                      A
 Frequencies --    515.7722               598.5758               627.6064
 Red. masses --      3.6546                 2.2194                 2.0835
 Frc consts  --      0.5728                 0.4685                 0.4835
 IR Inten    --      2.1712                 0.3811                 7.0309

                     19                     20                     21
                      A                      A                      A
 Frequencies --    673.1284               778.9613               831.9123
 Red. masses --      4.4361                 1.3338                 2.2190
 Frc consts  --      1.1843                 0.4768                 0.9048
 IR Inten    --      5.5075                 4.5110                 1.8280

                     22                     23                     24
                      A                      A                      A
 Frequencies --    841.6014               878.6219               888.3339
 Red. masses --      2.4630                 1.4116                 2.6817
 Frc consts  --      1.0278                 0.6420                 1.2468
 IR Inten    --      0.3644                 7.8278                 4.9427

                     25                     26                     27
                      A                      A                      A
 Frequencies --    900.5766               920.1373               945.0888
 Red. masses --      2.2942                 2.2802                 2.3966
 Frc consts  --      1.0963                 1.1374                 1.2612
 IR Inten    --     10.7702                20.6666                23.2983

                     28                     29                     30
                      A                      A                      A
 Frequencies --    960.7319               984.2478               992.3027
 Red. masses --      1.9675                 2.0810                 1.5152
 Frc consts  --      1.0700                 1.1878                 0.8790
 IR Inten    --     47.8682                33.7981                10.8982

                     31                     32                     33
                      A                      A                      A
 Frequencies --   1004.8391              1045.1514              1057.1104
 Red. masses --      1.9017                 2.5214                 1.9473
 Frc consts  --      1.1313                 1.6228                 1.2821
 IR Inten    --     10.6429                32.8377                38.1190

                     34                     35                     36
                      A                      A                      A
 Frequencies --   1074.1565              1086.9271              1116.6308
 Red. masses --      1.9929                 1.9690                 5.5769
 Frc consts  --      1.3548                 1.3706                 4.0969
 IR Inten    --     59.8767                49.4623               422.0215

                     37                     38                     39
                      A                      A                      A
 Frequencies --   1147.3756              1153.1109              1162.7050
 Red. masses --      2.7880                 2.8317                 2.3423
 Frc consts  --      2.1625                 2.2184                 1.8657
 IR Inten    --    103.5848                32.1551                13.0836

                     40                     41                     42
                      A                      A                      A
 Frequencies --   1173.7943              1191.7416              1210.6191
 Red. masses --      2.9578                 2.1325                 1.3995
 Frc consts  --      2.4010                 1.7844                 1.2085
 IR Inten    --    227.8908                32.1853                 3.9704

                     43                     44                     45
                      A                      A                      A
 Frequencies --   1215.5767              1248.2085              1255.0389
 Red. masses --      1.5923                 1.5997                 1.6967
 Frc consts  --      1.3862                 1.4685                 1.5746
 IR Inten    --     27.6868                42.6542                70.1742

                     46                     47                     48
                      A                      A                      A
 Frequencies --   1286.0170              1301.6537              1308.8602
 Red. masses --      1.2121                 1.1859                 1.1822
 Frc consts  --      1.1811                 1.1838                 1.1932
 IR Inten    --      4.9370                17.2364                10.5043

                     49                     50                     51
                      A                      A                      A
 Frequencies --   1327.8730              1343.4423              1345.8499
 Red. masses --      1.2869                 1.2764                 1.2978
 Frc consts  --      1.3370                 1.3573                 1.3851
 IR Inten    --      6.4017                 2.5360                 1.6104

                     52                     53                     54
                      A                      A                      A
 Frequencies --   1354.4187              1368.8449              1371.6218
 Red. masses --      1.2019                 1.3879                 1.4052
 Frc consts  --      1.2990                 1.5322                 1.5576
 IR Inten    --      8.5853                 3.8588                 1.4183

                     55                     56                     57
                      A                      A                      A
 Frequencies --   1382.8580              1389.9899              1404.2788
 Red. masses --      1.4410                 1.5225                 1.3503
 Frc consts  --      1.6235                 1.7331                 1.5689
 IR Inten    --      3.5265                 3.1106                27.6479

                     58                     59                     60
                      A                      A                      A
 Frequencies --   1412.3966              1416.0355              1432.7100
 Red. masses --      1.3277                 1.3750                 1.4106
 Frc consts  --      1.5605                 1.6244                 1.7060
 IR Inten    --      9.6281                10.4445                 1.7742

                     61                     62                     63
                      A                      A                      A
 Frequencies --   1439.2545              1480.6885              1487.2528
 Red. masses --      1.3476                 1.0923                 1.0775
 Frc consts  --      1.6447                 1.4110                 1.4042
 IR Inten    --     26.1216                 7.9711                 2.1945

                     64                     65                     66
                      A                      A                      A
 Frequencies --   1494.8089              1496.2215              1500.4404
 Red. masses --      1.0962                 1.1134                 1.0828
 Frc consts  --      1.4432                 1.4686                 1.4363
 IR Inten    --      5.8272                12.7393                 0.5879

                     67                     68                     69
                      A                      A                      A
 Frequencies --   1504.4430              1514.4732              1525.5031
 Red. masses --      1.0987                 1.1007                 1.0867
 Frc consts  --      1.4651                 1.4875                 1.4900
 IR Inten    --     12.1213                 9.4265                 4.8923

                     70                     71                     72
                      A                      A                      A
 Frequencies --   3012.9890              3019.0884              3058.1033
 Red. masses --      1.0698                 1.0703                 1.0653
 Frc consts  --      5.7219                 5.7479                 5.8697
 IR Inten    --     52.5634                87.4751                22.6730

                     73                     74                     75
                      A                      A                      A
 Frequencies --   3058.9833              3065.5335              3068.8979
 Red. masses --      1.0724                 1.0829                 1.0623
 Frc consts  --      5.9124                 5.9956                 5.8945
 IR Inten    --     72.4869                33.4425                30.7168

                     76                     77                     78
                      A                      A                      A
 Frequencies --   3074.6688              3082.6446              3084.1294
 Red. masses --      1.0668                 1.0637                 1.0628
 Frc consts  --      5.9418                 5.9555                 5.9562
 IR Inten    --     10.8566                36.5930                57.6933

                     79                     80                     81
                      A                      A                      A
 Frequencies --   3088.0540              3115.4103              3120.0056
 Red. masses --      1.0818                 1.0981                 1.1026
 Frc consts  --      6.0780                 6.2792                 6.3240
 IR Inten    --     56.0055                41.9226                59.1690

                     82                     83                     84
                      A                      A                      A
 Frequencies --   3120.2621              3130.4871              3133.7426
 Red. masses --      1.0990                 1.0949                 1.1010
 Frc consts  --      6.3045                 6.3220                 6.3704
 IR Inten    --     30.5085                49.9979                41.9802

                     85                     86                     87
                      A                      A                      A
 Frequencies --   3135.5665              3144.2865              3147.2036
 Red. masses --      1.1007                 1.0944                 1.0998
 Frc consts  --      6.3759                 6.3751                 6.4179
 IR Inten    --     48.6323                32.1395                37.6805

 - Thermochemistry -
 -------------------
 Temperature   298.150 Kelvin.  Pressure   1.00000 Atm.
 Atom     1 has atomic number  6 and mass  12.00000

 Molecular mass:   186.12559 amu.
 Principal axes and moments of inertia in atomic units:
                           1         2         3
     Eigenvalues --   923.673614433.647674662.54947
           X            0.99998  -0.00640  -0.00043
           Y            0.00639   0.99977  -0.02057
           Z            0.00056   0.02056   0.99979
 This molecule is an asymmetric top.
 Rotational symmetry number  1.
 Warning -- assumption of classical behavior for rotation
           may cause significant error
 Rotational temperatures (Kelvin)      0.09377     0.01954     0.01858
 Rotational constants (GHZ):           1.95387     0.40706     0.38707
    1 imaginary frequencies ignored.
 Zero-point vibrational energy     736064.4 (Joules/Mol)
                                  175.92362 (Kcal/Mol)
 Warning -- explicit consideration of  16 degrees of freedom as
           vibrations may cause significant error
 Vibrational temperatures:     84.33   111.64   179.09   259.44   295.76
          (Kelvin)            347.62   368.33   428.42   494.76   544.19
                              644.99   650.87   661.41   727.10   742.08
                              861.22   902.99   968.48  1120.75  1196.94
                             1210.88  1264.14  1278.11  1295.73  1323.87
                             1359.77  1382.28  1416.11  1427.70  1445.74
                             1503.74  1520.95  1545.47  1563.85  1606.58
                             1650.82  1659.07  1672.87  1688.83  1714.65
                             1741.81  1748.94  1795.89  1805.72  1850.29
                             1872.79  1883.16  1910.51  1932.91  1936.38
                             1948.71  1969.46  1973.46  1989.62  1999.89
                             2020.44  2032.12  2037.36  2061.35  2070.77
                             2130.38  2139.83  2150.70  2152.73  2158.80
                             2164.56  2178.99  2194.86  4335.02  4343.79
                             4399.93  4401.19  4410.62  4415.46  4423.76
                             4435.24  4437.37  4443.02  4482.38  4488.99
                             4489.36  4504.07  4508.76  4511.38  4523.93
                             4528.12

 Zero-point correction=                           0.280352 (Hartree/Particle)
 Thermal correction to Energy=                    0.291470
 Thermal correction to Enthalpy=                  0.292414
 Thermal correction to Gibbs Free Energy=         0.243202
 Sum of electronic and zero-point Energies=           -617.209846
 Sum of electronic and thermal Energies=              -617.198729
 Sum of electronic and thermal Enthalpies=            -617.197784
 Sum of electronic and thermal Free Energies=         -617.246996

                     E (Thermal)             CV                S
                      KCal/Mol        Cal/Mol-Kelvin    Cal/Mol-Kelvin
 Total                  182.900             45.048            103.576
 Electronic               0.000              0.000              0.000
 Translational            0.889              2.981             41.570
 Rotational               0.889              2.981             31.324
 Vibrational            181.123             39.086             30.682
 Vibration     1          0.596              1.974              4.503
 Vibration     2          0.599              1.964              3.951
 Vibration     3          0.610              1.929              3.030
 Vibration     4          0.629              1.866              2.325
 Vibration     5          0.640              1.832              2.083
 Vibration     6          0.658              1.777              1.791
 Vibration     7          0.666              1.753              1.689
 Vibration     8          0.691              1.678              1.429
 Vibration     9          0.723              1.588              1.194
 Vibration    10          0.749              1.517              1.046
 Vibration    11          0.807              1.365              0.801
 Vibration    12          0.811              1.356              0.789
 Vibration    13          0.818              1.339              0.767
 Vibration    14          0.861              1.238              0.645
 Vibration    15          0.871              1.215              0.620
 Vibration    16          0.957              1.035              0.452

 Optimization completed.
    -- Stationary point found.
 Normal termination of Gaussian 16 at Mon Nov  5 01:09:25 2018.
