 Gaussian 16, Revision A.03,
 Gaussian 16:  ES64L-G16RevA.03 25-Dec-2016

 ----------------------------------------------------------------------
 #M062X/6-311++G(2d,2p) opt=ModRedundant freq=noraman SCRF=(Solvent=Wat
 er)
 ----------------------------------------------------------------------

 -----------------------------
 2SO_1_e4_D_PHI.inp_extract_15
 -----------------------------
 Symbolic Z-matrix:
 Charge =  0 Multiplicity = 1

 SCF Done:  E(RM062X) =  -617.488381925     A.U. after   12 cycles
 SCF Done:  E(RM062X) =  -617.489764689     A.U. after   10 cycles
 SCF Done:  E(RM062X) =  -617.489945222     A.U. after   10 cycles
 SCF Done:  E(RM062X) =  -617.490081158     A.U. after   10 cycles
 SCF Done:  E(RM062X) =  -617.490106149     A.U. after    9 cycles
 SCF Done:  E(RM062X) =  -617.490110521     A.U. after    8 cycles
 SCF Done:  E(RM062X) =  -617.490111479     A.U. after    8 cycles
 Optimization completed.
    -- Stationary point found.
 Normal termination of Gaussian 16 at Mon Nov  5 00:07:02 2018.

 ----------------------------------------------------------------------
 #N Geom=AllCheck Guess=TCheck SCRF=Check GenChk RM062X/6-311++G(2d,2p)
  Freq
 ----------------------------------------------------------------------

 Structure from the checkpoint file:  "2SO_1_e4_D_PHI.inp_extract_15.chk"
 -----------------------------
 2SO_1_e4_D_PHI.inp_extract_15
 -----------------------------
 Charge =  0 Multiplicity = 1

                         Standard orientation:
 ---------------------------------------------------------------------
 Center     Atomic      Atomic             Coordinates (Angstroms)
 Number     Number       Type             X           Y           Z
 ---------------------------------------------------------------------
      1          6           0        1.032817   -0.144602   -0.002735
      2          6           0       -3.739973   -0.005920   -0.789083
      3          6           0       -1.265027    0.124526    0.833478
      4          6           0       -2.924224   -1.178758   -0.237827
      5          6           0       -3.036764    1.312075   -0.425591
      6          6           0        1.760213    0.997010    0.699521
      7          6           0        1.978492   -1.328856   -0.162563
      8          6           0        3.879506    0.049837   -0.220746
      9          8           0        3.135529   -0.962317   -0.888248
     10          6           0        3.055357    1.315384   -0.048329
     11          8           0       -0.065348   -0.632990    0.747263
     12          6           0       -1.531951    1.062045   -0.347667
     13          8           0       -2.309041   -0.801852    0.989869
     14          1           0        0.724961    0.172719   -1.000712
     15          1           0       -4.750144   -0.022571   -0.382563
     16          1           0       -3.820180   -0.108741   -1.872056
     17          1           0       -1.246107    0.696175    1.764488
     18          1           0       -3.549098   -2.039447   -0.015043
     19          1           0       -2.156873   -1.497793   -0.947149
     20          1           0       -3.391539    1.671801    0.541352
     21          1           0       -3.259134    2.085614   -1.157664
     22          1           0        1.123447    1.879395    0.769091
     23          1           0        1.989051    0.674162    1.719204
     24          1           0        1.489922   -2.129531   -0.714388
     25          1           0        2.255170   -1.702264    0.831241
     26          1           0        4.200693   -0.326408    0.758221
     27          1           0        4.763431    0.229267   -0.828825
     28          1           0        3.639146    2.061400    0.490960
     29          1           0        2.826122    1.725682   -1.034215
     30          1           0       -1.207774    0.605601   -1.283150
     31          1           0       -0.970894    1.985773   -0.220602
 ---------------------------------------------------------------------

 SCF Done:  E(RM062X) =  -617.490111479     A.U. after    1 cycles

 The electronic state is 1-A.
 Alpha  occ. eigenvalues --  -19.63187 -19.63164 -19.63071 -10.64040 -10.58832
 Alpha  occ. eigenvalues --  -10.58122 -10.58094 -10.58037 -10.53651 -10.53431
 Alpha  occ. eigenvalues --  -10.53333 -10.53231 -10.53019  -1.19908  -1.16739
 Alpha  occ. eigenvalues --   -1.13704  -0.90380  -0.90344  -0.87471  -0.84484
 Alpha  occ. eigenvalues --   -0.75061  -0.74858  -0.73362  -0.70129  -0.65968
 Alpha  occ. eigenvalues --   -0.62296  -0.60894  -0.59193  -0.57969  -0.57107
 Alpha  occ. eigenvalues --   -0.54659  -0.53043  -0.52454  -0.50782  -0.49541
 Alpha  occ. eigenvalues --   -0.48359  -0.47365  -0.45961  -0.45343  -0.45001
 Alpha  occ. eigenvalues --   -0.44250  -0.41940  -0.40993  -0.40588  -0.39806
 Alpha  occ. eigenvalues --   -0.38992  -0.37664  -0.36288  -0.34909  -0.33493
 Alpha  occ. eigenvalues --   -0.32135
 Alpha virt. eigenvalues --   -0.00144   0.00795   0.00822   0.01066   0.02128
 Alpha virt. eigenvalues --    0.02528   0.02613   0.03615   0.03790   0.04345
 Alpha virt. eigenvalues --    0.04617   0.04664   0.05618   0.06063   0.06825

 Mulliken charges:
               1
     1  C   -0.091236
     2  C   -0.445886
     3  C   -0.241550
     4  C   -0.078842
     5  C   -0.383003
     6  C   -0.187019
     7  C   -0.188215
     8  C   -0.212490
     9  O   -0.318213
    10  C   -0.413534
    11  O   -0.364366
    12  C   -0.241712
    13  O   -0.265010
    14  H    0.273301
    15  H    0.162922
    16  H    0.151720
    17  H    0.270399
    18  H    0.206233
    19  H    0.143598
    20  H    0.167757
    21  H    0.171569
    22  H    0.173636
    23  H    0.218078
    24  H    0.195329
    25  H    0.192233
    26  H    0.143229
    27  H    0.207345
    28  H    0.174779
    29  H    0.164334
    30  H    0.236435
    31  H    0.178179
 Sum of Mulliken charges =   0.00000

 Dipole moment (field-independent basis, Debye):
    X=             -0.4104    Y=              3.5520    Z=             -1.3181  Tot=              3.8109
 Quadrupole moment (field-independent basis, Debye-Ang):
   XX=            -76.0237   YY=            -80.1241   ZZ=            -83.6851
   XY=              3.7502   XZ=             10.0041   YZ=              1.9036

  Exact polarizability: 178.693   3.603 157.965   1.111   0.728 148.613
 Approx polarizability: 148.447   2.751 141.678  -0.568   0.405 142.151

 ******    1 imaginary frequencies (negative Signs) ******

                      1                      2                      3
                      A                      A                      A
 Frequencies --    -34.1832                58.1570                86.3798
 Red. masses --      3.8203                 3.6319                 3.4262
 Frc consts  --      0.0026                 0.0072                 0.0151
 IR Inten    --      1.0225                 2.0076                 0.8259

                      4                      5                      6
                      A                      A                      A
 Frequencies --     97.7681               198.8526               210.8371
 Red. masses --      3.2682                 2.8755                 1.9057
 Frc consts  --      0.0184                 0.0670                 0.0499
 IR Inten    --      2.7877                 2.6361                 0.2957

                      7                      8                      9
                      A                      A                      A
 Frequencies --    249.3397               267.7164               293.2438
 Red. masses --      1.9806                 2.6536                 4.4755
 Frc consts  --      0.0725                 0.1121                 0.2267
 IR Inten    --      5.1762                 1.1113                 7.5396

                     10                     11                     12
                      A                      A                      A
 Frequencies --    367.1039               379.4605               432.4612
 Red. masses --      2.7751                 2.7692                 2.8752
 Frc consts  --      0.2203                 0.2349                 0.3168
 IR Inten    --     15.2424                 6.0134                 5.9742

                     13                     14                     15
                      A                      A                      A
 Frequencies --    459.3507               482.7884               506.5682
 Red. masses --      3.2754                 2.9212                 2.8778
 Frc consts  --      0.4072                 0.4012                 0.4351
 IR Inten    --      4.6445                 0.9575                 0.5724

                     16                     17                     18
                      A                      A                      A
 Frequencies --    534.2851               583.0024               629.9425
 Red. masses --      4.1708                 2.3806                 2.0142
 Frc consts  --      0.7015                 0.4767                 0.4709
 IR Inten    --      4.3455                10.4064                 7.8958

                     19                     20                     21
                      A                      A                      A
 Frequencies --    668.0482               783.5218               830.4826
 Red. masses --      3.6561                 1.3168                 2.2100
 Frc consts  --      0.9614                 0.4763                 0.8981
 IR Inten    --     19.2778                 3.2546                 0.8437

                     22                     23                     24
                      A                      A                      A
 Frequencies --    841.4084               874.7582               892.9566
 Red. masses --      2.4450                 1.4013                 2.7511
 Frc consts  --      1.0199                 0.6318                 1.2925
 IR Inten    --      7.2018                15.3484                 5.5431

                     25                     26                     27
                      A                      A                      A
 Frequencies --    899.7365               924.4016               941.8595
 Red. masses --      2.3944                 2.2388                 2.1676
 Frc consts  --      1.1420                 1.1271                 1.1329
 IR Inten    --      9.8263                44.4079                40.7957

                     28                     29                     30
                      A                      A                      A
 Frequencies --    963.5557               990.6076               999.2608
 Red. masses --      2.1325                 1.9705                 1.5882
 Frc consts  --      1.1665                 1.1393                 0.9344
 IR Inten    --     20.3307                18.6685                26.7056

                     31                     32                     33
                      A                      A                      A
 Frequencies --   1009.6251              1053.0771              1059.3846
 Red. masses --      1.8688                 2.1555                 2.3814
 Frc consts  --      1.1223                 1.4084                 1.5746
 IR Inten    --     13.6477                23.8289                69.3812

                     34                     35                     36
                      A                      A                      A
 Frequencies --   1071.6192              1085.7191              1120.5518
 Red. masses --      2.0997                 1.9489                 4.8758
 Frc consts  --      1.4206                 1.3535                 3.6071
 IR Inten    --    136.0667                12.9537               423.7726

                     37                     38                     39
                      A                      A                      A
 Frequencies --   1145.3154              1150.9368              1166.9124
 Red. masses --      2.4899                 2.9205                 2.3308
 Frc consts  --      1.9243                 2.2794                 1.8700
 IR Inten    --     45.1160               121.9772                12.7307

                     40                     41                     42
                      A                      A                      A
 Frequencies --   1174.2918              1193.7860              1208.7606
 Red. masses --      2.9103                 2.8340                 1.4734
 Frc consts  --      2.3645                 2.3796                 1.2684
 IR Inten    --     81.1788                91.6577                20.1393

                     43                     44                     45
                      A                      A                      A
 Frequencies --   1213.4061              1246.4301              1250.6448
 Red. masses --      1.4169                 1.7086                 1.5208
 Frc consts  --      1.2291                 1.5640                 1.4015
 IR Inten    --     22.8522                23.7254                56.0948

                     46                     47                     48
                      A                      A                      A
 Frequencies --   1291.8914              1302.0392              1306.3555
 Red. masses --      1.1978                 1.1921                 1.1763
 Frc consts  --      1.1778                 1.1907                 1.1827
 IR Inten    --      3.1566                13.0944                10.1213

                     49                     50                     51
                      A                      A                      A
 Frequencies --   1330.3831              1340.7662              1349.4214
 Red. masses --      1.2876                 1.2750                 1.2690
 Frc consts  --      1.3427                 1.3504                 1.3615
 IR Inten    --      8.5493                 4.4833                 1.8654

                     52                     53                     54
                      A                      A                      A
 Frequencies --   1358.2206              1366.7714              1373.2163
 Red. masses --      1.2712                 1.4412                 1.3009
 Frc consts  --      1.3817                 1.5862                 1.4453
 IR Inten    --      4.6189                 4.1801                 3.1372

                     55                     56                     57
                      A                      A                      A
 Frequencies --   1384.4143              1392.1827              1396.8227
 Red. masses --      1.4097                 1.4268                 1.3075
 Frc consts  --      1.5919                 1.6293                 1.5031
 IR Inten    --      2.8102                39.6242                 5.1752

                     58                     59                     60
                      A                      A                      A
 Frequencies --   1409.7226              1415.4782              1428.4724
 Red. masses --      1.3466                 1.4020                 1.4110
 Frc consts  --      1.5768                 1.6550                 1.6963
 IR Inten    --     12.3693                 9.2444                20.3146

                     61                     62                     63
                      A                      A                      A
 Frequencies --   1437.3696              1481.6212              1488.7283
 Red. masses --      1.4346                 1.0923                 1.0807
 Frc consts  --      1.7462                 1.4127                 1.4112
 IR Inten    --     11.2324                 8.2719                 2.6119

                     64                     65                     66
                      A                      A                      A
 Frequencies --   1494.6612              1498.8629              1502.0985
 Red. masses --      1.1071                 1.0935                 1.0880
 Frc consts  --      1.4573                 1.4475                 1.4464
 IR Inten    --     11.2825                 7.4615                 0.2547

                     67                     68                     69
                      A                      A                      A
 Frequencies --   1505.7583              1515.6463              1528.7419
 Red. masses --      1.0979                 1.1013                 1.0852
 Frc consts  --      1.4666                 1.4906                 1.4942
 IR Inten    --      8.4827                 9.5920                 3.9468

                     70                     71                     72
                      A                      A                      A
 Frequencies --   3020.2789              3022.2410              3056.4826
 Red. masses --      1.0697                 1.0693                 1.0661
 Frc consts  --      5.7493                 5.7543                 5.8678
 IR Inten    --     34.3787                99.2198                 8.4823

                     73                     74                     75
                      A                      A                      A
 Frequencies --   3060.2556              3064.6745              3069.0479
 Red. masses --      1.0742                 1.0801                 1.0623
 Frc consts  --      5.9272                 5.9771                 5.8956
 IR Inten    --    112.1529                17.5632                33.7750

                     76                     77                     78
                      A                      A                      A
 Frequencies --   3077.1710              3080.6086              3082.4046
 Red. masses --      1.0654                 1.0681                 1.0709
 Frc consts  --      5.9441                 5.9720                 5.9951
 IR Inten    --     17.6565                19.5116                45.8413

                     79                     80                     81
                      A                      A                      A
 Frequencies --   3097.0013              3114.4570              3119.8368
 Red. masses --      1.0685                 1.0967                 1.1024
 Frc consts  --      6.0380                 6.2673                 6.3220
 IR Inten    --     58.1662                33.0617                54.7820

                     82                     83                     84
                      A                      A                      A
 Frequencies --   3120.4175              3132.6948              3134.9404
 Red. masses --      1.0994                 1.0952                 1.1006
 Frc consts  --      6.3074                 6.3326                 6.3729
 IR Inten    --     32.7164                41.7235                24.4847

                     85                     86                     87
                      A                      A                      A
 Frequencies --   3135.3655              3141.8563              3147.0704
 Red. masses --      1.0959                 1.1015                 1.1005
 Frc consts  --      6.3476                 6.4061                 6.4215
 IR Inten    --     57.7421                55.5704                43.6374

 - Thermochemistry -
 -------------------
 Temperature   298.150 Kelvin.  Pressure   1.00000 Atm.
 Atom     1 has atomic number  6 and mass  12.00000

 Molecular mass:   186.12559 amu.
 Principal axes and moments of inertia in atomic units:
                           1         2         3
     Eigenvalues --   919.091184644.297394968.12206
           X            0.99991   0.00321   0.01320
           Y           -0.00342   0.99987   0.01594
           Z           -0.01315  -0.01598   0.99979
 This molecule is an asymmetric top.
 Rotational symmetry number  1.
 Warning -- assumption of classical behavior for rotation
           may cause significant error
 Rotational temperatures (Kelvin)      0.09424     0.01865     0.01743
 Rotational constants (GHZ):           1.96361     0.38859     0.36326
    1 imaginary frequencies ignored.
 Zero-point vibrational energy     736748.7 (Joules/Mol)
                                  176.08717 (Kcal/Mol)
 Warning -- explicit consideration of  16 degrees of freedom as
           vibrations may cause significant error
 Vibrational temperatures:     83.67   124.28   140.67   286.10   303.35
          (Kelvin)            358.74   385.18   421.91   528.18   545.96
                              622.22   660.90   694.62   728.84   768.72
                              838.81   906.35   961.17  1127.31  1194.88
                             1210.60  1258.58  1284.77  1294.52  1330.01
                             1355.13  1386.34  1425.26  1437.71  1452.63
                             1515.14  1524.22  1541.82  1562.11  1612.22
                             1647.85  1655.94  1678.93  1689.54  1717.59
                             1739.14  1745.82  1793.33  1799.40  1858.74
                             1873.34  1879.55  1914.12  1929.06  1941.52
                             1954.18  1966.48  1975.75  1991.86  2003.04
                             2009.72  2028.28  2036.56  2055.25  2068.05
                             2131.72  2141.95  2150.48  2156.53  2161.18
                             2166.45  2180.68  2199.52  4345.51  4348.33
                             4397.60  4403.03  4409.38  4415.68  4427.36
                             4432.31  4434.89  4455.89  4481.01  4488.75
                             4489.58  4507.25  4510.48  4511.09  4520.43
                             4527.93

 Zero-point correction=                           0.280613 (Hartree/Particle)
 Thermal correction to Energy=                    0.291659
 Thermal correction to Enthalpy=                  0.292603
 Thermal correction to Gibbs Free Energy=         0.243452
 Sum of electronic and zero-point Energies=           -617.209499
 Sum of electronic and thermal Energies=              -617.198453
 Sum of electronic and thermal Enthalpies=            -617.197508
 Sum of electronic and thermal Free Energies=         -617.246659

                     E (Thermal)             CV                S
                      KCal/Mol        Cal/Mol-Kelvin    Cal/Mol-Kelvin
 Total                  183.019             44.882            103.447
 Electronic               0.000              0.000              0.000
 Translational            0.889              2.981             41.570
 Rotational               0.889              2.981             31.428
 Vibrational            181.241             38.920             30.449
 Vibration     1          0.596              1.974              4.519
 Vibration     2          0.601              1.959              3.740
 Vibration     3          0.603              1.951              3.498
 Vibration     4          0.637              1.841              2.144
 Vibration     5          0.643              1.824              2.036
 Vibration     6          0.662              1.764              1.735
 Vibration     7          0.673              1.732              1.611
 Vibration     8          0.688              1.686              1.455
 Vibration     9          0.740              1.540              1.092
 Vibration    10          0.749              1.514              1.041
 Vibration    11          0.793              1.400              0.851
 Vibration    12          0.817              1.340              0.768
 Vibration    13          0.839              1.288              0.703
 Vibration    14          0.862              1.235              0.642
 Vibration    15          0.889              1.174              0.578
 Vibration    16          0.940              1.068              0.480

 Optimization completed.
    -- Stationary point found.
 Normal termination of Gaussian 16 at Mon Nov  5 01:00:40 2018.
