 Gaussian 16, Revision A.03,
 Gaussian 16:  ES64L-G16RevA.03 25-Dec-2016

 ----------------------------------------------------------------------
 #M062X/6-311++G(2d,2p) opt=ModRedundant freq=noraman SCRF=(Solvent=Wat
 er)
 ----------------------------------------------------------------------

 ----------------------------
 2SO_1_e4_D_PHI.inp_extract_7
 ----------------------------
 Symbolic Z-matrix:
 Charge =  0 Multiplicity = 1

 SCF Done:  E(RM062X) =  -617.489066100     A.U. after   12 cycles
 SCF Done:  E(RM062X) =  -617.490513944     A.U. after   11 cycles
 SCF Done:  E(RM062X) =  -617.490775573     A.U. after   10 cycles
 SCF Done:  E(RM062X) =  -617.490908605     A.U. after   10 cycles
 SCF Done:  E(RM062X) =  -617.490925635     A.U. after    9 cycles
 SCF Done:  E(RM062X) =  -617.490930652     A.U. after    8 cycles
 SCF Done:  E(RM062X) =  -617.490933052     A.U. after    8 cycles
 SCF Done:  E(RM062X) =  -617.490935852     A.U. after    8 cycles
 SCF Done:  E(RM062X) =  -617.490936870     A.U. after    8 cycles
 SCF Done:  E(RM062X) =  -617.490937260     A.U. after    7 cycles
 SCF Done:  E(RM062X) =  -617.490937351     A.U. after    7 cycles
 Optimization completed.
    -- Stationary point found.
 Normal termination of Gaussian 16 at Mon Nov  5 00:28:52 2018.

 ----------------------------------------------------------------------
 #N Geom=AllCheck Guess=TCheck SCRF=Check GenChk RM062X/6-311++G(2d,2p)
  Freq
 ----------------------------------------------------------------------

 Structure from the checkpoint file:  "2SO_1_e4_D_PHI.inp_extract_7.chk"
 ----------------------------
 2SO_1_e4_D_PHI.inp_extract_7
 ----------------------------
 Charge =  0 Multiplicity = 1

                         Standard orientation:
 ---------------------------------------------------------------------
 Center     Atomic      Atomic             Coordinates (Angstroms)
 Number     Number       Type             X           Y           Z
 ---------------------------------------------------------------------
      1          6           0       -0.938769    0.309199   -0.108434
      2          6           0        3.431165   -0.836102    0.753441
      3          6           0        1.361404    0.443228   -0.896380
      4          6           0        1.982034   -1.296174    0.647917
      5          6           0        3.576199    0.607071    0.225398
      6          6           0       -1.942149    1.363488    0.331466
      7          6           0       -1.654144   -0.789835   -0.888800
      8          6           0       -3.686900   -0.421901    0.230226
      9          8           0       -2.691728   -1.373900   -0.120888
     10          6           0       -3.102263    0.700434    1.073170
     11          8           0        0.030216    0.936796   -0.934308
     12          6           0        2.204464    1.260104    0.070846
     13          8           0        1.413977   -0.934426   -0.610443
     14          1           0       -0.473284   -0.131995    0.776207
     15          1           0        4.069654   -1.511970    0.186341
     16          1           0        3.735756   -0.903754    1.797988
     17          1           0        1.733729    0.568201   -1.914475
     18          1           0        1.902255   -2.379103    0.701550
     19          1           0        1.387812   -0.880867    1.464435
     20          1           0        4.062341    0.594849   -0.751465
     21          1           0        4.207625    1.201243    0.882626
     22          1           0       -1.445941    2.108955    0.953137
     23          1           0       -2.315706    1.872344   -0.561733
     24          1           0       -0.959887   -1.582843   -1.153058
     25          1           0       -2.064473   -0.351429   -1.807901
     26          1           0       -4.131794   -0.012024   -0.684994
     27          1           0       -4.455579   -0.968200    0.772799
     28          1           0       -3.880283    1.428874    1.302261
     29          1           0       -2.750873    0.284264    2.019865
     30          1           0        1.688190    1.326922    1.031432
     31          1           0        2.284497    2.271699   -0.322998
 ---------------------------------------------------------------------

 SCF Done:  E(RM062X) =  -617.490937351     A.U. after    1 cycles

 The electronic state is 1-A.
 Alpha  occ. eigenvalues --  -19.63492 -19.62955 -19.62786 -10.63830 -10.58607
 Alpha  occ. eigenvalues --  -10.58369 -10.57958 -10.57498 -10.53393 -10.53281
 Alpha  occ. eigenvalues --  -10.53194 -10.53127 -10.53091  -1.19817  -1.16414
 Alpha  occ. eigenvalues --   -1.13557  -0.90898  -0.90032  -0.87167  -0.84255
 Alpha  occ. eigenvalues --   -0.74934  -0.74613  -0.73676  -0.69939  -0.65807
 Alpha  occ. eigenvalues --   -0.62896  -0.60121  -0.59108  -0.57497  -0.57112
 Alpha  occ. eigenvalues --   -0.54823  -0.52988  -0.52052  -0.50492  -0.49684
 Alpha  occ. eigenvalues --   -0.47549  -0.46763  -0.45785  -0.45535  -0.44426
 Alpha  occ. eigenvalues --   -0.44187  -0.43177  -0.41269  -0.40436  -0.39546
 Alpha  occ. eigenvalues --   -0.38892  -0.37464  -0.36846  -0.34598  -0.33794
 Alpha  occ. eigenvalues --   -0.31127
 Alpha virt. eigenvalues --   -0.00170   0.00682   0.00875   0.01128   0.02212
 Alpha virt. eigenvalues --    0.02445   0.02614   0.03341   0.03659   0.04424
 Alpha virt. eigenvalues --    0.04551   0.04768   0.05667   0.05714   0.06947

 Mulliken charges:
               1
     1  C    0.101040
     2  C   -0.396445
     3  C   -0.462273
     4  C   -0.027741
     5  C   -0.306459
     6  C   -0.312589
     7  C   -0.386518
     8  C   -0.141996
     9  O   -0.308633
    10  C   -0.367197
    11  O   -0.248702
    12  C   -0.104394
    13  O   -0.305428
    14  H    0.214067
    15  H    0.160411
    16  H    0.152088
    17  H    0.240981
    18  H    0.200269
    19  H    0.138950
    20  H    0.158957
    21  H    0.172418
    22  H    0.147843
    23  H    0.207058
    24  H    0.216811
    25  H    0.186332
    26  H    0.139398
    27  H    0.208718
    28  H    0.188947
    29  H    0.159414
    30  H    0.183538
    31  H    0.191135
 Sum of Mulliken charges =  -0.00000

 Dipole moment (field-independent basis, Debye):
    X=              1.7270    Y=              1.7251    Z=              2.4166  Tot=              3.4349
 Quadrupole moment (field-independent basis, Debye-Ang):
   XX=            -70.0885   YY=            -84.8312   ZZ=            -79.4538
   XY=             -4.8147   XZ=              0.6859   YZ=             -0.2999

  Exact polarizability: 175.688  -1.214 157.377  -2.105  -3.001 151.847
 Approx polarizability: 146.393  -1.629 142.918  -1.723  -3.341 142.643

 ******    1 imaginary frequencies (negative Signs) ******

                      1                      2                      3
                      A                      A                      A
 Frequencies --    -41.6533                54.2664                67.3859
 Red. masses --      3.4426                 3.8042                 2.9941
 Frc consts  --      0.0035                 0.0066                 0.0080
 IR Inten    --      1.1631                 2.2264                 1.7035

                      4                      5                      6
                      A                      A                      A
 Frequencies --    104.5350               168.9469               213.3097
 Red. masses --      2.6268                 2.2652                 2.9832
 Frc consts  --      0.0169                 0.0381                 0.0800
 IR Inten    --      0.3768                 0.5972                 2.6682

                      7                      8                      9
                      A                      A                      A
 Frequencies --    243.2161               258.4138               322.9727
 Red. masses --      2.6758                 2.2886                 4.2029
 Frc consts  --      0.0933                 0.0900                 0.2583
 IR Inten    --      1.6836                 2.9162                16.1711

                     10                     11                     12
                      A                      A                      A
 Frequencies --    342.5160               382.0526               444.4720
 Red. masses --      2.9795                 2.9018                 3.6467
 Frc consts  --      0.2059                 0.2496                 0.4245
 IR Inten    --      9.9331                21.2580                 3.6302

                     13                     14                     15
                      A                      A                      A
 Frequencies --    450.0402               459.8012               498.7139
 Red. masses --      2.8661                 2.7219                 3.9945
 Frc consts  --      0.3420                 0.3391                 0.5853
 IR Inten    --      1.7010                 2.7169                 6.5781

                     16                     17                     18
                      A                      A                      A
 Frequencies --    506.5388               586.1208               613.9152
 Red. masses --      2.7454                 2.0529                 1.9301
 Frc consts  --      0.4150                 0.4155                 0.4286
 IR Inten    --      3.1552                 0.6257                 6.6625

                     19                     20                     21
                      A                      A                      A
 Frequencies --    679.3299               777.3537               829.6371
 Red. masses --      4.3297                 1.3270                 2.3061
 Frc consts  --      1.1773                 0.4725                 0.9352
 IR Inten    --      5.7571                 5.1077                 2.8338

                     22                     23                     24
                      A                      A                      A
 Frequencies --    843.7527               877.1676               887.5413
 Red. masses --      2.3727                 1.3974                 2.6979
 Frc consts  --      0.9953                 0.6335                 1.2522
 IR Inten    --      0.1895                 7.8726                 2.6301

                     25                     26                     27
                      A                      A                      A
 Frequencies --    901.1058               914.4577               945.3608
 Red. masses --      2.2460                 2.4043                 2.4054
 Frc consts  --      1.0745                 1.1846                 1.2666
 IR Inten    --     12.3940                27.8822                39.0401

                     28                     29                     30
                      A                      A                      A
 Frequencies --    961.6089               990.0401               992.7479
 Red. masses --      2.1420                 2.1287                 1.3991
 Frc consts  --      1.1670                 1.2293                 0.8124
 IR Inten    --     47.1033                24.9987                 5.4918

                     31                     32                     33
                      A                      A                      A
 Frequencies --   1002.0573              1049.4315              1060.6633
 Red. masses --      1.8405                 1.9693                 2.4159
 Frc consts  --      1.0889                 1.2778                 1.6014
 IR Inten    --      8.9807                14.7757                11.4742

                     34                     35                     36
                      A                      A                      A
 Frequencies --   1075.9597              1091.4565              1117.0414
 Red. masses --      2.2902                 1.7838                 4.7364
 Frc consts  --      1.5621                 1.2520                 3.4821
 IR Inten    --     20.0249               133.0121               357.8363

                     37                     38                     39
                      A                      A                      A
 Frequencies --   1147.0519              1151.7949              1160.3416
 Red. masses --      2.7475                 2.8974                 2.3831
 Frc consts  --      2.1299                 2.2647                 1.8905
 IR Inten    --     77.2519                63.3090                17.7364

                     40                     41                     42
                      A                      A                      A
 Frequencies --   1172.1951              1193.2531              1211.0085
 Red. masses --      2.8918                 2.2523                 1.5541
 Frc consts  --      2.3411                 1.8895                 1.3429
 IR Inten    --    224.2199                77.3646                 9.3417

                     43                     44                     45
                      A                      A                      A
 Frequencies --   1222.2869              1248.1013              1252.0712
 Red. masses --      1.5270                 1.5557                 1.6304
 Frc consts  --      1.3441                 1.4279                 1.5060
 IR Inten    --     21.4898                40.8973                72.5340

                     46                     47                     48
                      A                      A                      A
 Frequencies --   1283.8576              1302.7335              1306.4843
 Red. masses --      1.2022                 1.1991                 1.1916
 Frc consts  --      1.1675                 1.1990                 1.1984
 IR Inten    --      4.7926                22.4599                13.2897

                     49                     50                     51
                      A                      A                      A
 Frequencies --   1327.7804              1342.4103              1346.9386
 Red. masses --      1.3004                 1.2579                 1.2992
 Frc consts  --      1.3508                 1.3356                 1.3888
 IR Inten    --      8.4337                 4.0626                 2.8835

                     52                     53                     54
                      A                      A                      A
 Frequencies --   1350.7429              1369.7985              1373.0089
 Red. masses --      1.2195                 1.3618                 1.4420
 Frc consts  --      1.3109                 1.5055                 1.6017
 IR Inten    --      7.9805                 1.7225                 5.3659

                     55                     56                     57
                      A                      A                      A
 Frequencies --   1382.9040              1386.7106              1402.6974
 Red. masses --      1.4436                 1.5176                 1.2735
 Frc consts  --      1.6266                 1.7194                 1.4763
 IR Inten    --      1.6469                 3.8740                 6.8192

                     58                     59                     60
                      A                      A                      A
 Frequencies --   1413.0966              1419.9923              1429.0848
 Red. masses --      1.4265                 1.3756                 1.3379
 Frc consts  --      1.6783                 1.6342                 1.6098
 IR Inten    --     30.4793                28.8752                 3.9145

                     61                     62                     63
                      A                      A                      A
 Frequencies --   1432.6821              1481.4575              1484.5506
 Red. masses --      1.4022                 1.0917                 1.0777
 Frc consts  --      1.6958                 1.4116                 1.3994
 IR Inten    --      8.6103                 7.7506                 1.4407

                     64                     65                     66
                      A                      A                      A
 Frequencies --   1491.6882              1495.2566              1500.9366
 Red. masses --      1.0981                 1.1139                 1.0820
 Frc consts  --      1.4396                 1.4674                 1.4362
 IR Inten    --     10.4633                10.5926                 0.8503

                     67                     68                     69
                      A                      A                      A
 Frequencies --   1506.3396              1514.1905              1529.3361
 Red. masses --      1.0966                 1.1004                 1.0872
 Frc consts  --      1.4661                 1.4865                 1.4982
 IR Inten    --     12.9979                 9.4963                 5.6105

                     70                     71                     72
                      A                      A                      A
 Frequencies --   3013.9208              3018.8638              3055.7499
 Red. masses --      1.0703                 1.0703                 1.0658
 Frc consts  --      5.7283                 5.7468                 5.8638
 IR Inten    --     47.6732                92.5943                24.0575

                     73                     74                     75
                      A                      A                      A
 Frequencies --   3060.2619              3068.4269              3072.7320
 Red. masses --      1.0705                 1.0625                 1.0709
 Frc consts  --      5.9067                 5.8938                 5.9572
 IR Inten    --     24.6280                27.9303                27.9892

                     76                     77                     78
                      A                      A                      A
 Frequencies --   3076.7707              3081.1494              3083.5156
 Red. masses --      1.0692                 1.0780                 1.0777
 Frc consts  --      5.9632                 6.0297                 6.0372
 IR Inten    --      7.4310                61.4289                90.4242

                     79                     80                     81
                      A                      A                      A
 Frequencies --   3085.5373              3113.5230              3118.7862
 Red. masses --      1.0648                 1.0984                 1.0993
 Frc consts  --      5.9731                 6.2738                 6.2997
 IR Inten    --     52.1969                44.1342                20.4877

                     82                     83                     84
                      A                      A                      A
 Frequencies --   3119.1991              3129.9839              3133.7972
 Red. masses --      1.1025                 1.0949                 1.1001
 Frc consts  --      6.3200                 6.3200                 6.3657
 IR Inten    --     60.5114                48.3140                39.4557

                     85                     86                     87
                      A                      A                      A
 Frequencies --   3134.8659              3143.8779              3157.3965
 Red. masses --      1.0985                 1.1007                 1.0937
 Frc consts  --      6.3606                 6.4099                 6.4243
 IR Inten    --     54.0565                49.5187                21.4780

 - Thermochemistry -
 -------------------
 Temperature   298.150 Kelvin.  Pressure   1.00000 Atm.
 Atom     1 has atomic number  6 and mass  12.00000

 Molecular mass:   186.12559 amu.
 Principal axes and moments of inertia in atomic units:
                           1         2         3
     Eigenvalues --   989.488964234.261394558.55561
           X            0.99997  -0.00698   0.00238
           Y            0.00697   0.99997   0.00397
           Z           -0.00241  -0.00395   0.99999
 This molecule is an asymmetric top.
 Rotational symmetry number  1.
 Warning -- assumption of classical behavior for rotation
           may cause significant error
 Rotational temperatures (Kelvin)      0.08753     0.02046     0.01900
 Rotational constants (GHZ):           1.82391     0.42622     0.39590
    1 imaginary frequencies ignored.
 Zero-point vibrational energy     735793.5 (Joules/Mol)
                                  175.85887 (Kcal/Mol)
 Warning -- explicit consideration of  17 degrees of freedom as
           vibrations may cause significant error
 Vibrational temperatures:     78.08    96.95   150.40   243.08   306.91
          (Kelvin)            349.93   371.80   464.69   492.80   549.69
                              639.50   647.51   661.55   717.54   728.80
                              843.30   883.29   977.40  1118.44  1193.66
                             1213.97  1262.05  1276.97  1296.49  1315.70
                             1360.16  1383.54  1424.45  1428.34  1441.74
                             1509.90  1526.06  1548.07  1570.36  1607.17
                             1650.35  1657.18  1669.47  1686.53  1716.83
                             1742.37  1758.60  1795.74  1801.45  1847.18
                             1874.34  1879.74  1910.38  1931.43  1937.94
                             1943.42  1970.83  1975.45  1989.69  1995.17
                             2018.17  2033.13  2043.05  2056.13  2061.31
                             2131.49  2135.94  2146.21  2151.34  2159.51
                             2167.29  2178.58  2200.37  4336.36  4343.47
                             4396.54  4403.03  4414.78  4420.98  4426.79
                             4433.09  4436.49  4439.40  4479.67  4487.24
                             4487.83  4503.35  4508.84  4510.37  4523.34
                             4542.79

 Zero-point correction=                           0.280249 (Hartree/Particle)
 Thermal correction to Energy=                    0.291430
 Thermal correction to Enthalpy=                  0.292374
 Thermal correction to Gibbs Free Energy=         0.242808
 Sum of electronic and zero-point Energies=           -617.210688
 Sum of electronic and thermal Energies=              -617.199507
 Sum of electronic and thermal Enthalpies=            -617.198563
 Sum of electronic and thermal Free Energies=         -617.248129

                     E (Thermal)             CV                S
                      KCal/Mol        Cal/Mol-Kelvin    Cal/Mol-Kelvin
 Total                  182.875             45.107            104.320
 Electronic               0.000              0.000              0.000
 Translational            0.889              2.981             41.570
 Rotational               0.889              2.981             31.324
 Vibrational            181.098             39.145             31.426
 Vibration     1          0.596              1.976              4.656
 Vibration     2          0.598              1.970              4.228
 Vibration     3          0.605              1.946              3.368
 Vibration     4          0.625              1.881              2.447
 Vibration     5          0.644              1.821              2.015
 Vibration     6          0.659              1.774              1.779
 Vibration     7          0.667              1.749              1.672
 Vibration     8          0.708              1.629              1.295
 Vibration     9          0.722              1.590              1.200
 Vibration    10          0.752              1.508              1.031
 Vibration    11          0.804              1.373              0.813
 Vibration    12          0.809              1.361              0.796
 Vibration    13          0.818              1.339              0.767
 Vibration    14          0.854              1.253              0.661
 Vibration    15          0.862              1.236              0.642
 Vibration    16          0.943              1.061              0.474
 Vibration    17          0.973              1.002              0.426

 Optimization completed.
    -- Stationary point found.
 Normal termination of Gaussian 16 at Mon Nov  5 01:20:36 2018.
