 Gaussian 16, Revision A.03,
 Gaussian 16:  ES64L-G16RevA.03 25-Dec-2016

 ----------------------------------------------------------------------
 #M062X/6-311++G(2d,2p) opt=ModRedundant freq=noraman SCRF=(Solvent=Wat
 er)
 ----------------------------------------------------------------------

 ----------------------------
 D_1a_4e_D_PHI.inp_extract_15
 ----------------------------
 Symbolic Z-matrix:
 Charge =  0 Multiplicity = 1

 SCF Done:  E(RM062X) =  -617.479632656     A.U. after   12 cycles
 SCF Done:  E(RM062X) =  -617.471168961     A.U. after   12 cycles
 SCF Done:  E(RM062X) =  -617.478738872     A.U. after   12 cycles
 SCF Done:  E(RM062X) =  -617.480954401     A.U. after    9 cycles
 SCF Done:  E(RM062X) =  -617.481684435     A.U. after   11 cycles
 SCF Done:  E(RM062X) =  -617.481920888     A.U. after   10 cycles
 SCF Done:  E(RM062X) =  -617.481994212     A.U. after    9 cycles
 SCF Done:  E(RM062X) =  -617.482014776     A.U. after    9 cycles
 SCF Done:  E(RM062X) =  -617.482018472     A.U. after    8 cycles
 SCF Done:  E(RM062X) =  -617.482019271     A.U. after    8 cycles
 SCF Done:  E(RM062X) =  -617.482019147     A.U. after    8 cycles
 Optimization completed.
    -- Stationary point found.
 Normal termination of Gaussian 16 at Sun Nov  4 22:21:41 2018.

 ----------------------------------------------------------------------
 #N Geom=AllCheck Guess=TCheck SCRF=Check GenChk RM062X/6-311++G(2d,2p)
  Freq
 ----------------------------------------------------------------------

 Structure from the checkpoint file:  "D_1a_4e_D_PHI.inp_extract_15.chk"
 ----------------------------
 D_1a_4e_D_PHI.inp_extract_15
 ----------------------------
 Charge =  0 Multiplicity = 1

                         Standard orientation:
 ---------------------------------------------------------------------
 Center     Atomic      Atomic             Coordinates (Angstroms)
 Number     Number       Type             X           Y           Z
 ---------------------------------------------------------------------
      1          6           0       -2.700349    1.113576    0.878794
      2          6           0       -1.423140   -1.194135   -0.359268
      3          6           0        1.041413   -0.789769   -0.668947
      4          6           0       -2.411620    1.228323   -0.611549
      5          8           0        2.926472   -0.455974    0.794888
      6          6           0        2.938794    0.943307    0.543602
      7          6           0       -1.560740    0.368854    1.541469
      8          6           0        1.005827    0.689011   -1.024759
      9          6           0        1.609543   -0.981463    0.738333
     10          6           0        2.414939    1.262264   -0.848440
     11          8           0       -1.391422   -0.950936    1.024530
     12          8           0       -0.149414   -1.527654   -0.891582
     13          6           0       -2.213813   -0.169249   -1.200709
     14          1           0       -3.633094    0.569000    1.044190
     15          1           0       -2.799603    2.095430    1.341257
     16          1           0        1.754144   -1.268507   -1.345704
     17          1           0       -3.236252    1.714576   -1.131597
     18          1           0       -1.534562    1.856194   -0.764000
     19          1           0        3.970568    1.267147    0.662366
     20          1           0        2.327365    1.451071    1.300326
     21          1           0       -0.634119    0.941203    1.438450
     22          1           0       -1.741915    0.226582    2.604858
     23          1           0        0.329708    1.219316   -0.356016
     24          1           0        0.645625    0.827927   -2.044750
     25          1           0        3.088744    0.827400   -1.589448
     26          1           0        2.411705    2.342177   -0.997419
     27          1           0       -3.205571   -0.603938   -1.336199
     28          1           0       -1.754395   -0.128049   -2.186753
     29          1           0       -1.936943   -2.149029   -0.456479
     30          1           0        0.985377   -0.493704    1.490866
     31          1           0        1.672998   -2.042585    0.972209
 ---------------------------------------------------------------------

 SCF Done:  E(RM062X) =  -617.482019147     A.U. after    1 cycles

 The electronic state is 1-A.
 Alpha  occ. eigenvalues --  -19.63536 -19.63003 -19.62715 -10.64119 -10.58860
 Alpha  occ. eigenvalues --  -10.58438 -10.58096 -10.57731 -10.53449 -10.53409
 Alpha  occ. eigenvalues --  -10.53349 -10.53292 -10.53208  -1.19339  -1.16474
 Alpha  occ. eigenvalues --   -1.13439  -0.90730  -0.90594  -0.87598  -0.84547
 Alpha  occ. eigenvalues --   -0.75492  -0.74440  -0.73786  -0.70422  -0.67369
 Alpha  occ. eigenvalues --   -0.62183  -0.60064  -0.58205  -0.56701  -0.56135
 Alpha  occ. eigenvalues --   -0.54388  -0.53261  -0.51898  -0.51688  -0.51043
 Alpha  occ. eigenvalues --   -0.49158  -0.47558  -0.46097  -0.45451  -0.45202
 Alpha  occ. eigenvalues --   -0.43021  -0.42884  -0.40689  -0.40515  -0.39398
 Alpha  occ. eigenvalues --   -0.38199  -0.37508  -0.36894  -0.34510  -0.33883
 Alpha  occ. eigenvalues --   -0.31302
 Alpha virt. eigenvalues --   -0.00239   0.00624   0.00817   0.01056   0.02393
 Alpha virt. eigenvalues --    0.02628   0.02751   0.03164   0.03334   0.04924
 Alpha virt. eigenvalues --    0.05156   0.05523   0.05642   0.05991   0.06882

 Mulliken charges:
               1
     1  C   -0.388336
     2  C   -0.003333
     3  C   -0.514996
     4  C   -0.334132
     5  O   -0.327289
     6  C   -0.216285
     7  C   -0.209784
     8  C   -0.108725
     9  C   -0.218275
    10  C   -0.380917
    11  O   -0.304356
    12  O   -0.278809
    13  C   -0.298959
    14  H    0.175368
    15  H    0.176585
    16  H    0.255661
    17  H    0.204854
    18  H    0.176129
    19  H    0.224104
    20  H    0.129184
    21  H    0.142393
    22  H    0.220436
    23  H    0.200853
    24  H    0.218191
    25  H    0.185440
    26  H    0.165421
    27  H    0.224472
    28  H    0.195902
    29  H    0.247058
    30  H    0.241479
    31  H    0.200665
 Sum of Mulliken charges =   0.00000

 Dipole moment (field-independent basis, Debye):
    X=             -2.3007    Y=              4.4342    Z=             -0.7555  Tot=              5.0523
 Quadrupole moment (field-independent basis, Debye-Ang):
   XX=            -80.4010   YY=            -81.7995   ZZ=            -80.5200
   XY=              2.9122   XZ=             -2.3837   YZ=              1.4744

  Exact polarizability: 169.900   2.211 159.054  -0.281   1.849 156.365
 Approx polarizability: 147.363   1.692 145.141  -1.627   2.333 141.943

                      1                      2                      3
                      A                      A                      A
 Frequencies --     59.6771                83.6869                94.4235
 Red. masses --      2.9295                 3.4449                 3.2486
 Frc consts  --      0.0061                 0.0142                 0.0171
 IR Inten    --      1.6811                 0.7197                 0.1971

                      4                      5                      6
                      A                      A                      A
 Frequencies --    111.5883               185.0813               202.7873
 Red. masses --      3.8819                 3.9348                 2.3329
 Frc consts  --      0.0285                 0.0794                 0.0565
 IR Inten    --      4.5964                 4.2438                 3.9448

                      7                      8                      9
                      A                      A                      A
 Frequencies --    259.5953               270.9030               331.9188
 Red. masses --      2.0175                 3.6474                 2.1387
 Frc consts  --      0.0801                 0.1577                 0.1388
 IR Inten    --      5.4284                 6.8721                 3.1333

                     10                     11                     12
                      A                      A                      A
 Frequencies --    359.1160               405.7011               420.3201
 Red. masses --      2.1098                 3.5649                 3.1221
 Frc consts  --      0.1603                 0.3457                 0.3250
 IR Inten    --     10.4891                 2.3442                 8.9332

                     13                     14                     15
                      A                      A                      A
 Frequencies --    432.1901               458.0405               481.5354
 Red. masses --      3.2180                 3.4382                 3.8512
 Frc consts  --      0.3542                 0.4250                 0.5261
 IR Inten    --      8.2544                 2.5032                 1.9936

                     16                     17                     18
                      A                      A                      A
 Frequencies --    499.0276               562.2698               615.6372
 Red. masses --      2.4878                 1.9124                 2.9480
 Frc consts  --      0.3650                 0.3562                 0.6583
 IR Inten    --      1.9043                10.6353                 8.7407

                     19                     20                     21
                      A                      A                      A
 Frequencies --    710.8312               766.7415               824.5118
 Red. masses --      3.5438                 1.9930                 2.2023
 Frc consts  --      1.0550                 0.6903                 0.8821
 IR Inten    --      9.9510                 9.9044                 1.7610

                     22                     23                     24
                      A                      A                      A
 Frequencies --    845.9151               878.2074               884.5361
 Red. masses --      2.2943                 1.7205                 1.9782
 Frc consts  --      0.9673                 0.7818                 0.9119
 IR Inten    --      8.6502                 7.9874                14.8589

                     25                     26                     27
                      A                      A                      A
 Frequencies --    894.4512               907.3352               935.6173
 Red. masses --      2.1490                 2.4097                 1.7508
 Frc consts  --      1.0130                 1.1688                 0.9030
 IR Inten    --     14.5259                35.9496                11.6991

                     28                     29                     30
                      A                      A                      A
 Frequencies --    947.0276               953.0108               988.6414
 Red. masses --      2.3976                 2.0933                 1.5089
 Frc consts  --      1.2669                 1.1202                 0.8689
 IR Inten    --     54.8295                36.9660                10.3845

                     31                     32                     33
                      A                      A                      A
 Frequencies --   1012.4062              1040.2073              1051.0768
 Red. masses --      2.3906                 2.3705                 1.7585
 Frc consts  --      1.4437                 1.5112                 1.1446
 IR Inten    --     29.3346                54.8512                47.2663

                     34                     35                     36
                      A                      A                      A
 Frequencies --   1068.9163              1093.5870              1123.9109
 Red. masses --      1.7645                 1.9653                 2.6947
 Frc consts  --      1.1878                 1.3848                 2.0055
 IR Inten    --     31.5127               118.1299               106.2490

                     37                     38                     39
                      A                      A                      A
 Frequencies --   1139.3974              1147.4641              1157.0003
 Red. masses --      2.6634                 2.8793                 2.8590
 Frc consts  --      2.0372                 2.2337                 2.2549
 IR Inten    --    100.5289                80.1945                55.6713

                     40                     41                     42
                      A                      A                      A
 Frequencies --   1180.1392              1197.8840              1204.4531
 Red. masses --      2.7632                 2.1813                 1.4771
 Frc consts  --      2.2674                 1.8442                 1.2625
 IR Inten    --    124.2765               100.1984                15.8307

                     43                     44                     45
                      A                      A                      A
 Frequencies --   1216.9267              1248.3886              1255.2440
 Red. masses --      1.5005                 1.6902                 1.6864
 Frc consts  --      1.3092                 1.5520                 1.5656
 IR Inten    --     59.7513                96.6514                17.1970

                     46                     47                     48
                      A                      A                      A
 Frequencies --   1298.2666              1305.4618              1322.7701
 Red. masses --      1.1985                 1.2527                 1.2354
 Frc consts  --      1.1902                 1.2579                 1.2735
 IR Inten    --     10.8260                30.7266                27.0013

                     49                     50                     51
                      A                      A                      A
 Frequencies --   1329.1966              1342.6474              1367.1059
 Red. masses --      1.2986                 1.2674                 1.3633
 Frc consts  --      1.3517                 1.3461                 1.5012
 IR Inten    --     17.0950                14.1303                 6.3241

                     52                     53                     54
                      A                      A                      A
 Frequencies --   1371.0614              1382.5985              1387.2270
 Red. masses --      1.3270                 1.4206                 1.3219
 Frc consts  --      1.4697                 1.5999                 1.4988
 IR Inten    --     29.9786                 0.7328                 1.8185

                     55                     56                     57
                      A                      A                      A
 Frequencies --   1392.6153              1402.1874              1408.3457
 Red. masses --      1.5884                 1.3599                 1.3091
 Frc consts  --      1.8149                 1.5753                 1.5298
 IR Inten    --     12.2972                10.8819                 1.0709

                     58                     59                     60
                      A                      A                      A
 Frequencies --   1419.5465              1430.8758              1436.3281
 Red. masses --      1.4024                 1.2873                 1.3481
 Frc consts  --      1.6651                 1.5529                 1.6386
 IR Inten    --      5.5500                 2.4052                17.2405

                     61                     62                     63
                      A                      A                      A
 Frequencies --   1465.2120              1478.0746              1482.7536
 Red. masses --      1.1521                 1.1023                 1.0907
 Frc consts  --      1.4573                 1.4189                 1.4128
 IR Inten    --      9.0854                 3.6908                 5.4586

                     64                     65                     66
                      A                      A                      A
 Frequencies --   1485.3115              1492.4075              1500.0000
 Red. masses --      1.0888                 1.1132                 1.0870
 Frc consts  --      1.4153                 1.4608                 1.4410
 IR Inten    --      8.6401                21.2021                 0.6235

                     67                     68                     69
                      A                      A                      A
 Frequencies --   1510.5380              1522.4758              1529.3768
 Red. masses --      1.0998                 1.0947                 1.0924
 Frc consts  --      1.4785                 1.4951                 1.5054
 IR Inten    --      4.8863                 5.8862                 6.8280

                     70                     71                     72
                      A                      A                      A
 Frequencies --   3014.4214              3051.9865              3060.8794
 Red. masses --      1.0708                 1.0693                 1.0819
 Frc consts  --      5.7330                 5.8682                 5.9723
 IR Inten    --     71.4288                57.4181                17.2278

                     73                     74                     75
                      A                      A                      A
 Frequencies --   3066.0374              3070.8228              3073.8784
 Red. masses --      1.0632                 1.0625                 1.0696
 Frc consts  --      5.8887                 5.9032                 5.9542
 IR Inten    --     56.5841                43.3862                 6.0716

                     76                     77                     78
                      A                      A                      A
 Frequencies --   3078.1351              3087.9273              3092.3691
 Red. masses --      1.0612                 1.0616                 1.0650
 Frc consts  --      5.9243                 5.9640                 6.0004
 IR Inten    --     56.9470                14.4064                61.7475

                     79                     80                     81
                      A                      A                      A
 Frequencies --   3102.9228              3118.3024              3119.7708
 Red. masses --      1.0849                 1.1010                 1.0990
 Frc consts  --      6.1542                 6.3076                 6.3025
 IR Inten    --     70.2257                16.9184                50.0962

                     82                     83                     84
                      A                      A                      A
 Frequencies --   3125.9506              3127.4568              3132.0736
 Red. masses --      1.0991                 1.0981                 1.0941
 Frc consts  --      6.3279                 6.3282                 6.3236
 IR Inten    --     29.4241                44.5075                49.6925

                     85                     86                     87
                      A                      A                      A
 Frequencies --   3136.2741              3139.6906              3153.8169
 Red. masses --      1.1009                 1.1042                 1.0962
 Frc consts  --      6.3798                 6.4133                 6.4242
 IR Inten    --     57.9525                34.2383                45.1951

 - Thermochemistry -
 -------------------
 Temperature   298.150 Kelvin.  Pressure   1.00000 Atm.
 Atom     1 has atomic number  6 and mass  12.00000

 Molecular mass:   186.12559 amu.
 Principal axes and moments of inertia in atomic units:
                           1         2         3
     Eigenvalues --  1320.346573356.286043440.97664
           X            1.00000   0.00046  -0.00249
           Y           -0.00047   1.00000  -0.00298
           Z            0.00249   0.00298   0.99999
 This molecule is an asymmetric top.
 Rotational symmetry number  1.
 Warning -- assumption of classical behavior for rotation
           may cause significant error
 Rotational temperatures (Kelvin)      0.06560     0.02581     0.02517
 Rotational constants (GHZ):           1.36687     0.53772     0.52449
 Zero-point vibrational energy     737631.9 (Joules/Mol)
                                  176.29826 (Kcal/Mol)
 Warning -- explicit consideration of  18 degrees of freedom as
           vibrations may cause significant error
 Vibrational temperatures:     85.86   120.41   135.85   160.55   266.29
          (Kelvin)            291.77   373.50   389.77   477.56   516.69
                              583.71   604.75   621.83   659.02   692.82
                              717.99   808.98   885.76  1022.73  1103.17
                             1186.29  1217.08  1263.54  1272.65  1286.92
                             1305.45  1346.14  1362.56  1371.17  1422.43
                             1456.63  1496.63  1512.27  1537.93  1573.43
                             1617.06  1639.34  1650.94  1664.67  1697.96
                             1723.49  1732.94  1750.89  1796.15  1806.02
                             1867.92  1878.27  1903.17  1912.42  1931.77
                             1966.96  1972.65  1989.25  1995.91  2003.66
                             2017.43  2026.30  2042.41  2058.71  2066.56
                             2108.11  2126.62  2133.35  2137.03  2147.24
                             2158.17  2173.33  2190.50  2200.43  4337.08
                             4391.13  4403.92  4411.34  4418.23  4422.63
                             4428.75  4442.84  4449.23  4464.41  4486.54
                             4488.65  4497.55  4499.71  4506.36  4512.40
                             4517.31  4537.64

 Zero-point correction=                           0.280949 (Hartree/Particle)
 Thermal correction to Energy=                    0.292787
 Thermal correction to Enthalpy=                  0.293731
 Thermal correction to Gibbs Free Energy=         0.243042
 Sum of electronic and zero-point Energies=           -617.201070
 Sum of electronic and thermal Energies=              -617.189232
 Sum of electronic and thermal Enthalpies=            -617.188288
 Sum of electronic and thermal Free Energies=         -617.238977

                     E (Thermal)             CV                S
                      KCal/Mol        Cal/Mol-Kelvin    Cal/Mol-Kelvin
 Total                  183.727             47.089            106.684
 Electronic               0.000              0.000              0.000
 Translational            0.889              2.981             41.570
 Rotational               0.889              2.981             31.101
 Vibrational            181.949             41.127             34.014
 Vibration     1          0.597              1.974              4.468
 Vibration     2          0.601              1.960              3.802
 Vibration     3          0.603              1.953              3.566
 Vibration     4          0.607              1.940              3.241
 Vibration     5          0.631              1.860              2.277
 Vibration     6          0.639              1.836              2.108
 Vibration     7          0.668              1.747              1.664
 Vibration     8          0.675              1.727              1.590
 Vibration     9          0.714              1.612              1.251
 Vibration    10          0.734              1.557              1.126
 Vibration    11          0.771              1.458              0.942
 Vibration    12          0.783              1.426              0.891
 Vibration    13          0.793              1.400              0.852
 Vibration    14          0.816              1.343              0.772
 Vibration    15          0.838              1.291              0.706
 Vibration    16          0.854              1.252              0.661
 Vibration    17          0.918              1.113              0.519
 Vibration    18          0.975              0.999              0.424

 Optimization completed.
    -- Stationary point found.
 Normal termination of Gaussian 16 at Sun Nov  4 23:17:00 2018.
