 Gaussian 16, Revision A.03,
 Gaussian 16:  ES64L-G16RevA.03 25-Dec-2016

 ----------------------------------------------------------------------
 #M062X/6-311++G(2d,2p) opt=ModRedundant freq=noraman SCRF=(Solvent=Wat
 er)
 ----------------------------------------------------------------------

 ----------------------------
 D_1a_4e_D_PHI.inp_extract_22
 ----------------------------
 Symbolic Z-matrix:
 Charge =  0 Multiplicity = 1

 SCF Done:  E(RM062X) =  -617.502845719     A.U. after   12 cycles
 SCF Done:  E(RM062X) =  -617.504475169     A.U. after   10 cycles
 SCF Done:  E(RM062X) =  -617.504594583     A.U. after    9 cycles
 SCF Done:  E(RM062X) =  -617.504627480     A.U. after   10 cycles
 SCF Done:  E(RM062X) =  -617.504657907     A.U. after   10 cycles
 SCF Done:  E(RM062X) =  -617.504688369     A.U. after   10 cycles
 SCF Done:  E(RM062X) =  -617.504694034     A.U. after   10 cycles
 SCF Done:  E(RM062X) =  -617.504691973     A.U. after    9 cycles
 SCF Done:  E(RM062X) =  -617.504690072     A.U. after    9 cycles
 SCF Done:  E(RM062X) =  -617.504691879     A.U. after    9 cycles
 SCF Done:  E(RM062X) =  -617.504690383     A.U. after   10 cycles
 SCF Done:  E(RM062X) =  -617.504690462     A.U. after    8 cycles
 SCF Done:  E(RM062X) =  -617.504691642     A.U. after    9 cycles
 SCF Done:  E(RM062X) =  -617.504694014     A.U. after    9 cycles
 SCF Done:  E(RM062X) =  -617.504690427     A.U. after   10 cycles
 SCF Done:  E(RM062X) =  -617.504690460     A.U. after    7 cycles
 SCF Done:  E(RM062X) =  -617.504691644     A.U. after    9 cycles
 SCF Done:  E(RM062X) =  -617.504694013     A.U. after    9 cycles
 SCF Done:  E(RM062X) =  -617.504690429     A.U. after   10 cycles
 Optimization completed.
    -- Stationary point found.
 Normal termination of Gaussian 16 at Sun Nov  4 22:58:07 2018.

 ----------------------------------------------------------------------
 #N Geom=AllCheck Guess=TCheck SCRF=Check GenChk RM062X/6-311++G(2d,2p)
  Freq
 ----------------------------------------------------------------------

 Structure from the checkpoint file:  "D_1a_4e_D_PHI.inp_extract_22.chk"
 ----------------------------
 D_1a_4e_D_PHI.inp_extract_22
 ----------------------------
 Charge =  0 Multiplicity = 1

                         Standard orientation:
 ---------------------------------------------------------------------
 Center     Atomic      Atomic             Coordinates (Angstroms)
 Number     Number       Type             X           Y           Z
 ---------------------------------------------------------------------
      1          6           0        3.443585   -0.634053    0.671846
      2          6           0        1.230128    0.886261   -0.353898
      3          6           0       -0.929444   -0.071781    0.032992
      4          6           0        3.174463   -0.630772   -0.832086
      5          8           0       -2.981852   -1.360438    0.166092
      6          6           0       -3.784825   -0.206950   -0.050938
      7          6           0        2.148232   -0.387188    1.426136
      8          6           0       -1.725461    1.216825   -0.133667
      9          6           0       -1.734333   -1.254150   -0.489591
     10          6           0       -3.109470    1.039785    0.494826
     11          8           0        1.535137    0.838400    1.020858
     12          8           0        0.283965   -0.094803   -0.706523
     13          6           0        2.459687    0.662932   -1.218999
     14          1           0        4.156518    0.155066    0.922747
     15          1           0        3.872614   -1.583324    0.993847
     16          1           0       -0.718695   -0.233291    1.094787
     17          1           0        4.103995   -0.727186   -1.392045
     18          1           0        2.547825   -1.486274   -1.090955
     19          1           0       -4.733269   -0.396341    0.446961
     20          1           0       -3.971833   -0.095728   -1.126046
     21          1           0        1.451567   -1.214650    1.260276
     22          1           0        2.317292   -0.289107    2.496004
     23          1           0       -1.823257    1.426924   -1.202891
     24          1           0       -1.210256    2.059020    0.327169
     25          1           0       -3.014434    0.942989    1.578470
     26          1           0       -3.733417    1.911230    0.296492
     27          1           0        3.125759    1.514194   -1.067626
     28          1           0        2.156498    0.657769   -2.265293
     29          1           0        0.817333    1.883467   -0.511577
     30          1           0       -1.883129   -1.132701   -1.570028
     31          1           0       -1.194493   -2.182798   -0.313436
 ---------------------------------------------------------------------

 SCF Done:  E(RM062X) =  -617.504690429     A.U. after    1 cycles

 The electronic state is 1-A.
 Alpha  occ. eigenvalues --  -19.63388 -19.63179 -19.63138 -10.63496 -10.58661
 Alpha  occ. eigenvalues --  -10.58110 -10.58076 -10.57890 -10.53371 -10.53313
 Alpha  occ. eigenvalues --  -10.53092 -10.52999 -10.52909  -1.20287  -1.16739
 Alpha  occ. eigenvalues --   -1.13482  -0.91063  -0.89710  -0.87627  -0.84436
 Alpha  occ. eigenvalues --   -0.75233  -0.74006  -0.72652  -0.70776  -0.65738
 Alpha  occ. eigenvalues --   -0.64067  -0.60016  -0.58759  -0.57493  -0.56021
 Alpha  occ. eigenvalues --   -0.54020  -0.53273  -0.51718  -0.51079  -0.49801
 Alpha  occ. eigenvalues --   -0.48714  -0.47375  -0.46091  -0.45653  -0.45156
 Alpha  occ. eigenvalues --   -0.43843  -0.42027  -0.41288  -0.40613  -0.39377
 Alpha  occ. eigenvalues --   -0.38442  -0.37931  -0.36437  -0.34748  -0.33429
 Alpha  occ. eigenvalues --   -0.32478
 Alpha virt. eigenvalues --   -0.00077   0.00776   0.00899   0.00974   0.02174
 Alpha virt. eigenvalues --    0.02462   0.02670   0.03379   0.03629   0.04450
 Alpha virt. eigenvalues --    0.04607   0.04823   0.05582   0.05742   0.07073

 Mulliken charges:
               1
     1  C   -0.421495
     2  C   -0.047185
     3  C   -0.261684
     4  C   -0.276508
     5  O   -0.336278
     6  C   -0.186799
     7  C   -0.114207
     8  C   -0.170327
     9  C   -0.231230
    10  C   -0.391374
    11  O   -0.271742
    12  O   -0.259247
    13  C   -0.443490
    14  H    0.166579
    15  H    0.173257
    16  H    0.262826
    17  H    0.181458
    18  H    0.173766
    19  H    0.209746
    20  H    0.141696
    21  H    0.131696
    22  H    0.206508
    23  H    0.225925
    24  H    0.178351
    25  H    0.166977
    26  H    0.177246
    27  H    0.194008
    28  H    0.182102
    29  H    0.251003
    30  H    0.190123
    31  H    0.198300
 Sum of Mulliken charges =  -0.00000

 Dipole moment (field-independent basis, Debye):
    X=              0.7692    Y=              1.3089    Z=             -0.7767  Tot=              1.7053
 Quadrupole moment (field-independent basis, Debye-Ang):
   XX=            -73.5878   YY=            -82.0987   ZZ=            -80.6257
   XY=             -8.7458   XZ=              1.2296   YZ=             -2.4308

  Exact polarizability: 174.939  -3.239 154.827  -1.412  -1.742 155.104
 Approx polarizability: 146.121  -1.063 142.596  -0.419  -1.094 143.307

                      1                      2                      3
                      A                      A                      A
 Frequencies --     17.9333                58.9309                98.4279
 Red. masses --      3.4108                 4.0168                 3.4347
 Frc consts  --      0.0006                 0.0082                 0.0196
 IR Inten    --      1.4761                 0.8433                 0.9142

                      4                      5                      6
                      A                      A                      A
 Frequencies --    152.6314               177.0430               239.2775
 Red. masses --      3.2451                 3.0169                 3.0098
 Frc consts  --      0.0445                 0.0557                 0.1015
 IR Inten    --      0.3371                 3.2600                 5.2190

                      7                      8                      9
                      A                      A                      A
 Frequencies --    244.3027               280.9988               347.3519
 Red. masses --      1.9644                 2.7082                 2.4369
 Frc consts  --      0.0691                 0.1260                 0.1732
 IR Inten    --      6.8683                 4.0233                 2.4036

                     10                     11                     12
                      A                      A                      A
 Frequencies --    373.2141               383.8341               434.0184
 Red. masses --      2.5589                 2.2673                 3.3467
 Frc consts  --      0.2100                 0.1968                 0.3714
 IR Inten    --     10.2273                24.9639                 6.0631

                     13                     14                     15
                      A                      A                      A
 Frequencies --    452.2121               464.0970               482.7820
 Red. masses --      3.5218                 3.1036                 2.5541
 Frc consts  --      0.4243                 0.3938                 0.3507
 IR Inten    --      4.3406                 2.9976                 4.3228

                     16                     17                     18
                      A                      A                      A
 Frequencies --    533.2700               576.8015               627.3711
 Red. masses --      2.2206                 2.3446                 2.9552
 Frc consts  --      0.3721                 0.4596                 0.6853
 IR Inten    --      3.7472                11.7536                 3.9408

                     19                     20                     21
                      A                      A                      A
 Frequencies --    726.3366               826.5875               832.9497
 Red. masses --      3.1029                 2.0924                 1.5967
 Frc consts  --      0.9645                 0.8423                 0.6527
 IR Inten    --      5.5720                 1.4068                 2.0869

                     22                     23                     24
                      A                      A                      A
 Frequencies --    840.2453               877.2189               891.4767
 Red. masses --      3.3384                 1.4154                 2.3560
 Frc consts  --      1.3887                 0.6417                 1.1032
 IR Inten    --      7.0622                14.7725                 6.9384

                     25                     26                     27
                      A                      A                      A
 Frequencies --    898.1322               912.7333               929.7163
 Red. masses --      2.4423                 2.4547                 1.6402
 Frc consts  --      1.1607                 1.2049                 0.8353
 IR Inten    --     21.6591                18.2116                25.1685

                     28                     29                     30
                      A                      A                      A
 Frequencies --    943.1668               980.9458              1000.1777
 Red. masses --      2.1842                 2.3400                 1.4796
 Frc consts  --      1.1448                 1.3266                 0.8720
 IR Inten    --     41.9860                49.7306                 8.5012

                     31                     32                     33
                      A                      A                      A
 Frequencies --   1028.8600              1043.5164              1061.2191
 Red. masses --      2.2089                 2.3815                 1.6780
 Frc consts  --      1.3776                 1.5279                 1.1134
 IR Inten    --     22.9156                98.7570                25.7030

                     34                     35                     36
                      A                      A                      A
 Frequencies --   1065.3678              1072.2430              1115.9486
 Red. masses --      1.5522                 2.2654                 4.5799
 Frc consts  --      1.0380                 1.5346                 3.3604
 IR Inten    --     51.0243                17.3286               232.3977

                     37                     38                     39
                      A                      A                      A
 Frequencies --   1146.6043              1155.4639              1177.1386
 Red. masses --      2.2725                 2.9927                 2.5892
 Frc consts  --      1.7603                 2.3541                 2.1138
 IR Inten    --     11.4290               137.5472                80.4747

                     40                     41                     42
                      A                      A                      A
 Frequencies --   1179.2255              1186.8548              1210.4867
 Red. masses --      3.2331                 2.5405                 1.5181
 Frc consts  --      2.6489                 2.1085                 1.3106
 IR Inten    --    138.4313                47.8279                56.1633

                     43                     44                     45
                      A                      A                      A
 Frequencies --   1215.9327              1234.4645              1248.6938
 Red. masses --      1.4589                 1.6248                 1.4594
 Frc consts  --      1.2708                 1.4589                 1.3408
 IR Inten    --     28.4842                56.8060                15.2369

                     46                     47                     48
                      A                      A                      A
 Frequencies --   1289.2210              1300.7444              1322.7721
 Red. masses --      1.2190                 1.1692                 1.1513
 Frc consts  --      1.1937                 1.1655                 1.1869
 IR Inten    --     20.4191                13.4668                 7.3806

                     49                     50                     51
                      A                      A                      A
 Frequencies --   1330.8550              1344.6598              1351.5646
 Red. masses --      1.2844                 1.2502                 1.2615
 Frc consts  --      1.3404                 1.3318                 1.3577
 IR Inten    --      8.3013                 3.1268                 8.4324

                     52                     53                     54
                      A                      A                      A
 Frequencies --   1362.7981              1381.2060              1386.7867
 Red. masses --      1.3507                 1.3967                 1.4694
 Frc consts  --      1.4780                 1.5699                 1.6649
 IR Inten    --      5.0390                 9.4398                 0.7681

                     55                     56                     57
                      A                      A                      A
 Frequencies --   1390.5716              1400.0012              1405.3088
 Red. masses --      1.5953                 1.2952                 1.4669
 Frc consts  --      1.8175                 1.4957                 1.7068
 IR Inten    --      4.2593                20.8772                14.9379

                     58                     59                     60
                      A                      A                      A
 Frequencies --   1415.7448              1417.1168              1433.5068
 Red. masses --      1.3845                 1.4233                 1.4884
 Frc consts  --      1.6350                 1.6840                 1.8021
 IR Inten    --      3.6618                12.8664                 4.5505

                     61                     62                     63
                      A                      A                      A
 Frequencies --   1437.2905              1474.9072              1480.5295
 Red. masses --      1.3754                 1.1042                 1.0907
 Frc consts  --      1.6740                 1.4152                 1.4086
 IR Inten    --     18.4781                 5.2587                 8.5598

                     64                     65                     66
                      A                      A                      A
 Frequencies --   1481.8167              1494.2304              1495.3156
 Red. masses --      1.0867                 1.1118                 1.1126
 Frc consts  --      1.4058                 1.4626                 1.4657
 IR Inten    --      7.5003                12.4612                11.7293

                     67                     68                     69
                      A                      A                      A
 Frequencies --   1501.0796              1510.0532              1513.4649
 Red. masses --      1.0852                 1.0925                 1.1019
 Frc consts  --      1.4406                 1.4677                 1.4870
 IR Inten    --      0.9397                 3.4243                 8.3163

                     70                     71                     72
                      A                      A                      A
 Frequencies --   3017.6789              3021.2762              3048.6577
 Red. masses --      1.0691                 1.0704                 1.0701
 Frc consts  --      5.7363                 5.7570                 5.8598
 IR Inten    --     32.8713                94.1397                55.8432

                     73                     74                     75
                      A                      A                      A
 Frequencies --   3050.6511              3060.6738              3063.9022
 Red. masses --      1.0748                 1.0721                 1.0632
 Frc consts  --      5.8935                 5.9175                 5.8806
 IR Inten    --      6.9815                63.4508                38.8818

                     76                     77                     78
                      A                      A                      A
 Frequencies --   3071.0157              3073.3574              3077.9716
 Red. masses --      1.0621                 1.0627                 1.0638
 Frc consts  --      5.9020                 5.9138                 5.9377
 IR Inten    --     48.4296                26.8063                13.7455

                     79                     80                     81
                      A                      A                      A
 Frequencies --   3094.9504              3113.8574              3118.8620
 Red. masses --      1.0854                 1.0981                 1.0980
 Frc consts  --      6.1255                 6.2731                 6.2930
 IR Inten    --     72.8285                36.4926                37.2857

                     82                     83                     84
                      A                      A                      A
 Frequencies --   3119.6222              3122.7204              3130.3160
 Red. masses --      1.1026                 1.1010                 1.0952
 Frc consts  --      6.3220                 6.3255                 6.3228
 IR Inten    --     74.7642                46.0899                38.2697

                     85                     86                     87
                      A                      A                      A
 Frequencies --   3131.0314              3135.1818              3136.7117
 Red. masses --      1.1030                 1.0950                 1.0974
 Frc consts  --      6.3709                 6.3416                 6.3615
 IR Inten    --     43.8530                40.1192                47.4037

 - Thermochemistry -
 -------------------
 Temperature   298.150 Kelvin.  Pressure   1.00000 Atm.
 Atom     1 has atomic number  6 and mass  12.00000

 Molecular mass:   186.12559 amu.
 Principal axes and moments of inertia in atomic units:
                           1         2         3
     Eigenvalues --   946.334734389.239864497.04222
           X            0.99988  -0.01534  -0.00005
           Y            0.01530   0.99780  -0.06447
           Z            0.00104   0.06446   0.99792
 This molecule is an asymmetric top.
 Rotational symmetry number  1.
 Warning -- assumption of classical behavior for rotation
           may cause significant error
 Rotational temperatures (Kelvin)      0.09153     0.01973     0.01926
 Rotational constants (GHZ):           1.90709     0.41117     0.40132
 Zero-point vibrational energy     737235.7 (Joules/Mol)
                                  176.20357 (Kcal/Mol)
 Warning -- explicit consideration of  17 degrees of freedom as
           vibrations may cause significant error
 Vibrational temperatures:     25.80    84.79   141.62   219.60   254.73
          (Kelvin)            344.27   351.50   404.29   499.76   536.97
                              552.25   624.46   650.63   667.73   694.62
                              767.26   829.89   902.65  1045.04  1189.28
                             1198.43  1208.93  1262.12  1282.64  1292.21
                             1313.22  1337.65  1357.01  1411.36  1439.03
                             1480.30  1501.39  1526.86  1532.83  1542.72
                             1605.60  1649.71  1662.45  1693.64  1696.64
                             1707.62  1741.62  1749.46  1776.12  1796.59
                             1854.90  1871.48  1903.17  1914.80  1934.67
                             1944.60  1960.76  1987.25  1995.28  2000.72
                             2014.29  2021.93  2036.94  2038.92  2062.50
                             2067.94  2122.06  2130.15  2132.00  2149.86
                             2151.43  2159.72  2172.63  2177.54  4341.77
                             4346.94  4386.34  4389.21  4403.63  4408.27
                             4418.51  4421.88  4428.51  4452.94  4480.15
                             4487.35  4488.44  4492.90  4503.83  4504.86
                             4510.83  4513.03

 Zero-point correction=                           0.280798 (Hartree/Particle)
 Thermal correction to Energy=                    0.292545
 Thermal correction to Enthalpy=                  0.293489
 Thermal correction to Gibbs Free Energy=         0.241835
 Sum of electronic and zero-point Energies=           -617.223892
 Sum of electronic and thermal Energies=              -617.212146
 Sum of electronic and thermal Enthalpies=            -617.211201
 Sum of electronic and thermal Free Energies=         -617.262855

                     E (Thermal)             CV                S
                      KCal/Mol        Cal/Mol-Kelvin    Cal/Mol-Kelvin
 Total                  183.575             46.647            108.714
 Electronic               0.000              0.000              0.000
 Translational            0.889              2.981             41.570
 Rotational               0.889              2.981             31.302
 Vibrational            181.797             40.686             35.842
 Vibration     1          0.593              1.986              6.851
 Vibration     2          0.596              1.974              4.493
 Vibration     3          0.604              1.950              3.485
 Vibration     4          0.619              1.900              2.639
 Vibration     5          0.628              1.871              2.359
 Vibration     6          0.657              1.780              1.808
 Vibration     7          0.660              1.772              1.771
 Vibration     8          0.681              1.709              1.528
 Vibration     9          0.725              1.581              1.178
 Vibration    10          0.745              1.527              1.067
 Vibration    11          0.753              1.505              1.024
 Vibration    12          0.795              1.396              0.846
 Vibration    13          0.811              1.356              0.789
 Vibration    14          0.822              1.330              0.754
 Vibration    15          0.839              1.288              0.703
 Vibration    16          0.888              1.176              0.580
 Vibration    17          0.933              1.081              0.491

                           ! Non-Optimized Parameters !
 Normal termination of Gaussian 16 at Sun Nov  4 23:52:32 2018.
