 Gaussian 16, Revision A.03,
 Gaussian 16:  ES64L-G16RevA.03 25-Dec-2016

 ----------------------------------------------------------------------
 #M062X/6-311++G(2d,2p) opt=ModRedundant freq=noraman SCRF=(Solvent=Wat
 er)
 ----------------------------------------------------------------------

 ----------------------------
 D_1a_4e_D_PHI.inp_extract_14
 ----------------------------
 Symbolic Z-matrix:
 Charge =  0 Multiplicity = 1

 SCF Done:  E(RM062X) =  -617.479224994     A.U. after   12 cycles
 SCF Done:  E(RM062X) =  -617.469592645     A.U. after   12 cycles
 SCF Done:  E(RM062X) =  -617.479611086     A.U. after   12 cycles
 SCF Done:  E(RM062X) =  -617.480703300     A.U. after    9 cycles
 SCF Done:  E(RM062X) =  -617.481430881     A.U. after   10 cycles
 SCF Done:  E(RM062X) =  -617.481564154     A.U. after   10 cycles
 SCF Done:  E(RM062X) =  -617.481595878     A.U. after    9 cycles
 SCF Done:  E(RM062X) =  -617.481626619     A.U. after    9 cycles
 SCF Done:  E(RM062X) =  -617.481629510     A.U. after    8 cycles
 SCF Done:  E(RM062X) =  -617.481629861     A.U. after    7 cycles
 Optimization completed.
    -- Stationary point found.
 Normal termination of Gaussian 16 at Sun Nov  4 22:17:06 2018.

 ----------------------------------------------------------------------
 #N Geom=AllCheck Guess=TCheck SCRF=Check GenChk RM062X/6-311++G(2d,2p)
  Freq
 ----------------------------------------------------------------------

 Structure from the checkpoint file:  "D_1a_4e_D_PHI.inp_extract_14.chk"
 ----------------------------
 D_1a_4e_D_PHI.inp_extract_14
 ----------------------------
 Charge =  0 Multiplicity = 1

                         Standard orientation:
 ---------------------------------------------------------------------
 Center     Atomic      Atomic             Coordinates (Angstroms)
 Number     Number       Type             X           Y           Z
 ---------------------------------------------------------------------
      1          6           0       -2.734566    0.950461    1.014249
      2          6           0       -1.418356   -1.097494   -0.587193
      3          6           0        1.063710   -0.696461   -0.774871
      4          6           0       -2.346070    1.366579   -0.398245
      5          8           0        2.942124   -0.543883    0.749602
      6          6           0        2.921976    0.876501    0.705996
      7          6           0       -1.653805    0.046766    1.570135
      8          6           0        0.999746    0.817112   -0.896312
      9          6           0        1.644360   -1.088527    0.584406
     10          6           0        2.398677    1.380740   -0.629413
     11          8           0       -1.523213   -1.157254    0.816966
     12          8           0       -0.120698   -1.436765   -1.039865
     13          6           0       -2.085112    0.125548   -1.257981
     14          1           0       -3.684191    0.410204    1.007862
     15          1           0       -2.847861    1.819192    1.662525
     16          1           0        1.764747   -1.059389   -1.530811
     17          1           0       -3.139572    1.950688   -0.863028
     18          1           0       -1.472179    2.014773   -0.352493
     19          1           0        3.944766    1.203407    0.880337
     20          1           0        2.293602    1.254299    1.522482
     21          1           0       -0.701198    0.584825    1.605915
     22          1           0       -1.885550   -0.280805    2.581381
     23          1           0        0.318773    1.220410   -0.148740
     24          1           0        0.639460    1.117361   -1.879933
     25          1           0        3.083687    1.069382   -1.420593
     26          1           0        2.374430    2.470520   -0.622901
     27          1           0       -3.056773   -0.235300   -1.597674
     28          1           0       -1.520097    0.370308   -2.154834
     29          1           0       -1.969117   -1.972881   -0.926530
     30          1           0        0.989274   -0.750157    1.393762
     31          1           0        1.738732   -2.170974    0.645031
 ---------------------------------------------------------------------

 SCF Done:  E(RM062X) =  -617.481629861     A.U. after    1 cycles

 The electronic state is 1-A.
 Alpha  occ. eigenvalues --  -19.63375 -19.63064 -19.62915 -10.64129 -10.58916
 Alpha  occ. eigenvalues --  -10.58330 -10.58121 -10.57794 -10.53632 -10.53515
 Alpha  occ. eigenvalues --  -10.53456 -10.53335 -10.53155  -1.19301  -1.16562
 Alpha  occ. eigenvalues --   -1.13460  -0.90856  -0.90504  -0.87671  -0.84594
 Alpha  occ. eigenvalues --   -0.75537  -0.74528  -0.73761  -0.70476  -0.67345
 Alpha  occ. eigenvalues --   -0.62247  -0.60137  -0.58152  -0.56622  -0.56128
 Alpha  occ. eigenvalues --   -0.54583  -0.53286  -0.52159  -0.51754  -0.51020
 Alpha  occ. eigenvalues --   -0.49074  -0.47679  -0.46169  -0.45390  -0.45239
 Alpha  occ. eigenvalues --   -0.43241  -0.42678  -0.40767  -0.40457  -0.39388
 Alpha  occ. eigenvalues --   -0.38224  -0.37217  -0.37015  -0.34416  -0.34146
 Alpha  occ. eigenvalues --   -0.31555
 Alpha virt. eigenvalues --   -0.00245   0.00599   0.00813   0.01060   0.02399
 Alpha virt. eigenvalues --    0.02617   0.02769   0.03143   0.03350   0.04934
 Alpha virt. eigenvalues --    0.05172   0.05524   0.05620   0.05998   0.06891

 Mulliken charges:
               1
     1  C   -0.365448
     2  C   -0.061271
     3  C   -0.453926
     4  C   -0.358718
     5  O   -0.326570
     6  C   -0.227453
     7  C   -0.209818
     8  C   -0.181936
     9  C   -0.186907
    10  C   -0.387449
    11  O   -0.291483
    12  O   -0.275442
    13  C   -0.255880
    14  H    0.175333
    15  H    0.172657
    16  H    0.255004
    17  H    0.200157
    18  H    0.180815
    19  H    0.226347
    20  H    0.132701
    21  H    0.135864
    22  H    0.222096
    23  H    0.210456
    24  H    0.216361
    25  H    0.186168
    26  H    0.165824
    27  H    0.238606
    28  H    0.195816
    29  H    0.245892
    30  H    0.226731
    31  H    0.195475
 Sum of Mulliken charges =  -0.00000

 Dipole moment (field-independent basis, Debye):
    X=             -2.0760    Y=              4.7705    Z=             -0.3937  Tot=              5.2175
 Quadrupole moment (field-independent basis, Debye-Ang):
   XX=            -81.0031   YY=            -82.9423   ZZ=            -79.3895
   XY=              2.6099   XZ=             -1.7195   YZ=              1.2931

  Exact polarizability: 169.890   1.972 158.625  -0.376   1.707 156.650
 Approx polarizability: 147.620   1.803 144.482  -1.541   2.502 142.510

                      1                      2                      3
                      A                      A                      A
 Frequencies --     64.7837                77.2425                98.8711
 Red. masses --      3.2844                 4.2622                 3.5922
 Frc consts  --      0.0081                 0.0150                 0.0207
 IR Inten    --      0.0900                 2.9447                 3.1926

                      4                      5                      6
                      A                      A                      A
 Frequencies --    124.2251               182.5478               205.7236
 Red. masses --      3.0852                 3.2952                 2.3097
 Frc consts  --      0.0281                 0.0647                 0.0576
 IR Inten    --      1.2916                 3.9517                 1.6029

                      7                      8                      9
                      A                      A                      A
 Frequencies --    258.9669               267.8416               332.9048
 Red. masses --      2.0563                 3.4023                 1.9667
 Frc consts  --      0.0812                 0.1438                 0.1284
 IR Inten    --      7.0638                 6.1959                 1.5387

                     10                     11                     12
                      A                      A                      A
 Frequencies --    358.2530               404.3007               428.6756
 Red. masses --      2.2045                 3.8758                 2.6493
 Frc consts  --      0.1667                 0.3733                 0.2868
 IR Inten    --     12.0566                 4.1579                 2.7458

                     13                     14                     15
                      A                      A                      A
 Frequencies --    438.8422               460.9311               486.5194
 Red. masses --      3.5966                 3.9608                 4.1450
 Frc consts  --      0.4081                 0.4958                 0.5781
 IR Inten    --     11.8497                 2.7507                 3.1328

                     16                     17                     18
                      A                      A                      A
 Frequencies --    496.5250               566.6598               607.9201
 Red. masses --      2.5686                 1.9110                 2.7792
 Frc consts  --      0.3731                 0.3615                 0.6052
 IR Inten    --      3.4934                11.6434                 7.5873

                     19                     20                     21
                      A                      A                      A
 Frequencies --    711.6514               762.8998               826.2510
 Red. masses --      3.5224                 1.9475                 2.2112
 Frc consts  --      1.0511                 0.6678                 0.8894
 IR Inten    --     11.8777                 8.6976                 2.0802

                     22                     23                     24
                      A                      A                      A
 Frequencies --    844.9771               880.4432               888.3114
 Red. masses --      2.2803                 1.6126                 2.1085
 Frc consts  --      0.9593                 0.7365                 0.9803
 IR Inten    --      9.8933                 9.2954                10.9569

                     25                     26                     27
                      A                      A                      A
 Frequencies --    898.1134               905.7603               936.1081
 Red. masses --      2.1240                 2.4259                 1.7488
 Frc consts  --      1.0094                 1.1726                 0.9029
 IR Inten    --     17.3942                35.9902                12.1152

                     28                     29                     30
                      A                      A                      A
 Frequencies --    951.1899               952.7032               989.9914
 Red. masses --      2.0535                 2.4981                 1.5522
 Frc consts  --      1.0947                 1.3359                 0.8963
 IR Inten    --     17.0532                73.2221                12.8422

                     31                     32                     33
                      A                      A                      A
 Frequencies --   1010.3661              1040.2650              1053.9305
 Red. masses --      2.3405                 2.3592                 1.7957
 Frc consts  --      1.4077                 1.5042                 1.1752
 IR Inten    --     25.5549                57.9821                55.3533

                     34                     35                     36
                      A                      A                      A
 Frequencies --   1067.6289              1092.6102              1121.7768
 Red. masses --      1.7622                 2.1732                 2.5771
 Frc consts  --      1.1835                 1.5286                 1.9107
 IR Inten    --     44.0498               135.8830                94.3527

                     37                     38                     39
                      A                      A                      A
 Frequencies --   1142.1000              1149.5091              1155.1313
 Red. masses --      2.4407                 2.8123                 2.8279
 Frc consts  --      1.8757                 2.1894                 2.2232
 IR Inten    --     82.6533                66.0556                76.3881

                     40                     41                     42
                      A                      A                      A
 Frequencies --   1182.0647              1196.5955              1207.9843
 Red. masses --      2.8329                 2.2187                 1.4995
 Frc consts  --      2.3322                 1.8717                 1.2892
 IR Inten    --    149.4291                54.4793                33.3479

                     43                     44                     45
                      A                      A                      A
 Frequencies --   1216.7380              1247.3525              1255.1468
 Red. masses --      1.5284                 1.6935                 1.5919
 Frc consts  --      1.3332                 1.5525                 1.4776
 IR Inten    --     67.3018                87.6526                 8.2534

                     46                     47                     48
                      A                      A                      A
 Frequencies --   1300.1599              1306.9006              1321.8532
 Red. masses --      1.2106                 1.2490                 1.2431
 Frc consts  --      1.2057                 1.2569                 1.2797
 IR Inten    --      8.1788                30.5972                24.3362

                     49                     50                     51
                      A                      A                      A
 Frequencies --   1329.3606              1346.1698              1367.0160
 Red. masses --      1.3049                 1.2670                 1.3569
 Frc consts  --      1.3586                 1.3528                 1.4939
 IR Inten    --     14.3437                17.7938                 4.6070

                     52                     53                     54
                      A                      A                      A
 Frequencies --   1368.4928              1381.6774              1388.7201
 Red. masses --      1.3034                 1.4059                 1.3743
 Frc consts  --      1.4382                 1.5813                 1.5615
 IR Inten    --     28.6246                 1.0684                 1.6512

                     55                     56                     57
                      A                      A                      A
 Frequencies --   1393.1177              1402.0780              1406.5567
 Red. masses --      1.4525                 1.3717                 1.3127
 Frc consts  --      1.6609                 1.5888                 1.5301
 IR Inten    --      8.6688                10.1182                 1.9296

                     58                     59                     60
                      A                      A                      A
 Frequencies --   1419.1660              1429.2228              1434.2482
 Red. masses --      1.3893                 1.3589                 1.3461
 Frc consts  --      1.6486                 1.6354                 1.6315
 IR Inten    --      5.7544                 0.4092                19.9664

                     61                     62                     63
                      A                      A                      A
 Frequencies --   1472.7586              1479.5037              1483.3664
 Red. masses --      1.1287                 1.1075                 1.0925
 Frc consts  --      1.4424                 1.4284                 1.4164
 IR Inten    --      9.1321                 3.2104                 8.1154

                     64                     65                     66
                      A                      A                      A
 Frequencies --   1489.7729              1493.1578              1501.4557
 Red. masses --      1.0907                 1.1113                 1.0879
 Frc consts  --      1.4263                 1.4597                 1.4450
 IR Inten    --     11.2869                18.8631                 0.4889

                     67                     68                     69
                      A                      A                      A
 Frequencies --   1512.5440              1525.8350              1526.9823
 Red. masses --      1.0989                 1.0909                 1.0939
 Frc consts  --      1.4812                 1.4964                 1.5027
 IR Inten    --      4.2057                 3.6573                10.8759

                     70                     71                     72
                      A                      A                      A
 Frequencies --   3015.8357              3042.5978              3051.7650
 Red. masses --      1.0709                 1.0701                 1.0683
 Frc consts  --      5.7387                 5.8364                 5.8619
 IR Inten    --     74.2745                67.0257                24.5682

                     73                     74                     75
                      A                      A                      A
 Frequencies --   3065.6414              3066.7477              3072.1780
 Red. masses --      1.0796                 1.0638                 1.0625
 Frc consts  --      5.9781                 5.8945                 5.9082
 IR Inten    --     78.2617                26.9615                41.1093

                     76                     77                     78
                      A                      A                      A
 Frequencies --   3077.6392              3089.5850              3096.4310
 Red. masses --      1.0721                 1.0609                 1.0652
 Frc consts  --      5.9828                 5.9666                 6.0174
 IR Inten    --      3.3007                26.6882                49.5236

                     79                     80                     81
                      A                      A                      A
 Frequencies --   3104.8177              3119.0348              3120.5874
 Red. masses --      1.0839                 1.0991                 1.1012
 Frc consts  --      6.1562                 6.3000                 6.3184
 IR Inten    --     69.5443                 8.0681                59.8105

                     82                     83                     84
                      A                      A                      A
 Frequencies --   3127.4048              3129.4414              3134.0010
 Red. masses --      1.1008                 1.0960                 1.0948
 Frc consts  --      6.3437                 6.3242                 6.3353
 IR Inten    --     35.9873                48.2188                55.4474

                     85                     86                     87
                      A                      A                      A
 Frequencies --   3136.4374              3144.1454              3158.2984
 Red. masses --      1.0985                 1.0973                 1.0975
 Frc consts  --      6.3668                 6.3913                 6.4499
 IR Inten    --     35.1306                38.1104                41.6486

 - Thermochemistry -
 -------------------
 Temperature   298.150 Kelvin.  Pressure   1.00000 Atm.
 Atom     1 has atomic number  6 and mass  12.00000

 Molecular mass:   186.12559 amu.
 Principal axes and moments of inertia in atomic units:
                           1         2         3
     Eigenvalues --  1335.269743354.625973464.55003
           X            1.00000  -0.00051  -0.00260
           Y            0.00047   0.99985  -0.01737
           Z            0.00261   0.01737   0.99985
 This molecule is an asymmetric top.
 Rotational symmetry number  1.
 Warning -- assumption of classical behavior for rotation
           may cause significant error
 Rotational temperatures (Kelvin)      0.06487     0.02582     0.02500
 Rotational constants (GHZ):           1.35159     0.53799     0.52092
 Zero-point vibrational energy     737988.5 (Joules/Mol)
                                  176.38348 (Kcal/Mol)
 Warning -- explicit consideration of  18 degrees of freedom as
           vibrations may cause significant error
 Vibrational temperatures:     93.21   111.13   142.25   178.73   262.65
          (Kelvin)            295.99   372.60   385.36   478.98   515.45
                              581.70   616.77   631.40   663.18   699.99
                              714.39   815.30   874.66  1023.91  1097.64
                             1188.79  1215.73  1266.76  1278.08  1292.18
                             1303.19  1346.85  1368.55  1370.73  1424.38
                             1453.69  1496.71  1516.37  1536.08  1572.02
                             1613.99  1643.23  1653.89  1661.98  1700.73
                             1721.63  1738.02  1750.61  1794.66  1805.88
                             1870.64  1880.34  1901.85  1912.65  1936.84
                             1966.83  1968.96  1987.93  1998.06  2004.39
                             2017.28  2023.72  2041.86  2056.33  2063.56
                             2118.97  2128.68  2134.23  2143.45  2148.32
                             2160.26  2176.21  2195.34  2196.99  4339.11
                             4377.62  4390.81  4410.77  4412.37  4420.18
                             4428.04  4445.22  4455.07  4467.14  4487.60
                             4489.83  4499.64  4502.57  4509.13  4512.63
                             4523.72  4544.09

 Zero-point correction=                           0.281085 (Hartree/Particle)
 Thermal correction to Energy=                    0.292880
 Thermal correction to Enthalpy=                  0.293824
 Thermal correction to Gibbs Free Energy=         0.243289
 Sum of electronic and zero-point Energies=           -617.200545
 Sum of electronic and thermal Energies=              -617.188750
 Sum of electronic and thermal Enthalpies=            -617.187806
 Sum of electronic and thermal Free Energies=         -617.238341

                     E (Thermal)             CV                S
                      KCal/Mol        Cal/Mol-Kelvin    Cal/Mol-Kelvin
 Total                  183.785             47.025            106.360
 Electronic               0.000              0.000              0.000
 Translational            0.889              2.981             41.570
 Rotational               0.889              2.981             31.118
 Vibrational            182.007             41.064             33.672
 Vibration     1          0.597              1.971              4.306
 Vibration     2          0.599              1.964              3.960
 Vibration     3          0.604              1.950              3.476
 Vibration     4          0.610              1.929              3.034
 Vibration     5          0.630              1.864              2.302
 Vibration     6          0.640              1.832              2.081
 Vibration     7          0.668              1.748              1.669
 Vibration     8          0.673              1.732              1.610
 Vibration     9          0.715              1.610              1.246
 Vibration    10          0.733              1.558              1.130
 Vibration    11          0.769              1.461              0.947
 Vibration    12          0.790              1.408              0.863
 Vibration    13          0.799              1.385              0.830
 Vibration    14          0.819              1.337              0.763
 Vibration    15          0.843              1.280              0.693
 Vibration    16          0.852              1.258              0.667
 Vibration    17          0.923              1.103              0.511
 Vibration    18          0.967              1.015              0.436

                           ! Non-Optimized Parameters !
 Normal termination of Gaussian 16 at Sun Nov  4 23:12:56 2018.
