 Gaussian 16, Revision A.03,
 Gaussian 16:  ES64L-G16RevA.03 25-Dec-2016

 ----------------------------------------------------------------------
 #M062X/6-311++G(2d,2p) opt=ModRedundant freq=noraman SCRF=(Solvent=Wat
 er)
 ----------------------------------------------------------------------

 ----------------------------
 D_1a_4e_D_PHI.inp_extract_12
 ----------------------------
 Symbolic Z-matrix:
 Charge =  0 Multiplicity = 1

 SCF Done:  E(RM062X) =  -617.479031159     A.U. after   12 cycles
 SCF Done:  E(RM062X) =  -617.472467129     A.U. after   12 cycles
 SCF Done:  E(RM062X) =  -617.479706561     A.U. after   11 cycles
 SCF Done:  E(RM062X) =  -617.480972073     A.U. after   11 cycles
 SCF Done:  E(RM062X) =  -617.481054780     A.U. after   10 cycles
 SCF Done:  E(RM062X) =  -617.481120731     A.U. after   10 cycles
 SCF Done:  E(RM062X) =  -617.481165868     A.U. after    9 cycles
 SCF Done:  E(RM062X) =  -617.481168290     A.U. after    8 cycles
 Optimization completed.
    -- Stationary point found.
 Normal termination of Gaussian 16 at Sun Nov  4 22:09:17 2018.

 ----------------------------------------------------------------------
 #N Geom=AllCheck Guess=TCheck SCRF=Check GenChk RM062X/6-311++G(2d,2p)
  Freq
 ----------------------------------------------------------------------

 Structure from the checkpoint file:  "D_1a_4e_D_PHI.inp_extract_12.chk"
 ----------------------------
 D_1a_4e_D_PHI.inp_extract_12
 ----------------------------
 Charge =  0 Multiplicity = 1

                         Standard orientation:
 ---------------------------------------------------------------------
 Center     Atomic      Atomic             Coordinates (Angstroms)
 Number     Number       Type             X           Y           Z
 ---------------------------------------------------------------------
      1          6           0        2.592530    1.081930    1.020846
      2          6           0        1.524584   -1.048607   -0.674662
      3          6           0       -1.001920   -0.581654   -0.791798
      4          6           0        1.596642    0.101933    1.632852
      5          8           0       -2.459110    1.322070   -0.621880
      6          6           0       -3.013962    0.855957    0.602830
      7          6           0        2.289266    1.266063   -0.454231
      8          6           0       -1.549781   -1.170943    0.504673
      9          6           0       -1.100081    0.941718   -0.756138
     10          6           0       -2.983718   -0.662494    0.683988
     11          8           0        2.283936    0.031538   -1.168426
     12          8           0        0.235197   -1.105697   -1.261231
     13          6           0        1.635751   -1.204142    0.842704
     14          1           0        3.607364    0.693480    1.133046
     15          1           0        2.550981    2.051425    1.517390
     16          1           0       -1.687711   -0.889566   -1.585414
     17          1           0        1.844179   -0.100789    2.674424
     18          1           0        0.600376    0.544440    1.629847
     19          1           0       -4.032452    1.235966    0.639417
     20          1           0       -2.452164    1.288654    1.439981
     21          1           0        1.338189    1.783201   -0.587846
     22          1           0        3.056633    1.866199   -0.938863
     23          1           0       -0.958605   -0.852475    1.362794
     24          1           0       -1.520577   -2.259954    0.461146
     25          1           0       -3.625634   -1.072881   -0.098026
     26          1           0       -3.386691   -0.982418    1.644983
     27          1           0        2.614932   -1.657460    1.011550
     28          1           0        0.896911   -1.925671    1.182855
     29          1           0        2.001278   -1.914332   -1.130872
     30          1           0       -0.530215    1.361053    0.077558
     31          1           0       -0.732851    1.369284   -1.688051
 ---------------------------------------------------------------------

 SCF Done:  E(RM062X) =  -617.481168291     A.U. after    1 cycles

 The electronic state is 1-A.
 Alpha  occ. eigenvalues --  -19.63312 -19.63103 -19.63051 -10.64109 -10.59260
 Alpha  occ. eigenvalues --  -10.58329 -10.58223 -10.58069 -10.53656 -10.53521
 Alpha  occ. eigenvalues --  -10.53449 -10.53410 -10.53186  -1.19086  -1.16790
 Alpha  occ. eigenvalues --   -1.13355  -0.90856  -0.90609  -0.87823  -0.84977
 Alpha  occ. eigenvalues --   -0.75659  -0.74436  -0.73861  -0.70575  -0.67610
 Alpha  occ. eigenvalues --   -0.62586  -0.59975  -0.58559  -0.56437  -0.55743
 Alpha  occ. eigenvalues --   -0.54727  -0.54055  -0.52876  -0.50868  -0.50280
 Alpha  occ. eigenvalues --   -0.49743  -0.47867  -0.46312  -0.45707  -0.44984
 Alpha  occ. eigenvalues --   -0.43883  -0.42471  -0.40644  -0.40114  -0.39409
 Alpha  occ. eigenvalues --   -0.38231  -0.37532  -0.37185  -0.34736  -0.33795
 Alpha  occ. eigenvalues --   -0.31903
 Alpha virt. eigenvalues --   -0.00212   0.00685   0.00783   0.01033   0.02382
 Alpha virt. eigenvalues --    0.02645   0.02694   0.03198   0.03376   0.04991
 Alpha virt. eigenvalues --    0.05092   0.05346   0.05764   0.06109   0.07144

 Mulliken charges:
               1
     1  C   -0.310383
     2  C    0.072334
     3  C   -0.511347
     4  C   -0.343309
     5  O   -0.325270
     6  C   -0.200082
     7  C   -0.272390
     8  C   -0.161040
     9  C   -0.259102
    10  C   -0.356298
    11  O   -0.287854
    12  O   -0.314320
    13  C   -0.437443
    14  H    0.173953
    15  H    0.185094
    16  H    0.259526
    17  H    0.195546
    18  H    0.183959
    19  H    0.218920
    20  H    0.134497
    21  H    0.132728
    22  H    0.219043
    23  H    0.218374
    24  H    0.205982
    25  H    0.180942
    26  H    0.172832
    27  H    0.243311
    28  H    0.211303
    29  H    0.252705
    30  H    0.269817
    31  H    0.247973
 Sum of Mulliken charges =  -0.00000

 Dipole moment (field-independent basis, Debye):
    X=             -0.0863    Y=             -0.2143    Z=              4.8686  Tot=              4.8741
 Quadrupole moment (field-independent basis, Debye-Ang):
   XX=            -79.3271   YY=            -79.7180   ZZ=            -84.2723
   XY=              5.1741   XZ=              0.7292   YZ=             -0.5521

  Exact polarizability: 173.382   1.950 158.142  -2.287  -0.114 153.695
 Approx polarizability: 149.977   0.255 142.800  -0.766   0.734 141.814

 ******    1 imaginary frequencies (negative Signs) ******

                      1                      2                      3
                      A                      A                      A
 Frequencies --    -24.3981                92.7626               108.0650
 Red. masses --      5.8589                 3.7537                 3.2035
 Frc consts  --      0.0021                 0.0190                 0.0220
 IR Inten    --      4.2114                 0.7811                 0.1476

                      4                      5                      6
                      A                      A                      A
 Frequencies --    145.8316               199.3772               233.3443
 Red. masses --      3.0447                 2.7891                 3.0994
 Frc consts  --      0.0382                 0.0653                 0.0994
 IR Inten    --      1.2082                 1.4506                 0.1576

                      7                      8                      9
                      A                      A                      A
 Frequencies --    275.9818               292.7374               318.3476
 Red. masses --      2.0166                 3.7021                 2.0050
 Frc consts  --      0.0905                 0.1869                 0.1197
 IR Inten    --      5.6688                14.9718                 0.9857

                     10                     11                     12
                      A                      A                      A
 Frequencies --    365.6132               387.6567               430.5168
 Red. masses --      2.6276                 2.8404                 2.8252
 Frc consts  --      0.2069                 0.2515                 0.3085
 IR Inten    --      4.4736                14.0147                 4.0938

                     13                     14                     15
                      A                      A                      A
 Frequencies --    437.5336               469.5433               481.5751
 Red. masses --      2.9920                 3.1846                 3.5299
 Frc consts  --      0.3375                 0.4137                 0.4823
 IR Inten    --      8.5277                 4.0995                 1.5423

                     16                     17                     18
                      A                      A                      A
 Frequencies --    531.0991               556.2856               604.3189
 Red. masses --      2.7041                 1.9243                 3.0354
 Frc consts  --      0.4494                 0.3509                 0.6531
 IR Inten    --      2.3826                10.2197                12.8369

                     19                     20                     21
                      A                      A                      A
 Frequencies --    704.0163               793.2577               824.2751
 Red. masses --      3.0606                 2.0022                 2.2615
 Frc consts  --      0.8937                 0.7423                 0.9053
 IR Inten    --     10.6514                12.8732                 2.6214

                     22                     23                     24
                      A                      A                      A
 Frequencies --    837.0471               876.4047               882.7240
 Red. masses --      2.3857                 2.1258                 1.5286
 Frc consts  --      0.9848                 0.9620                 0.7018
 IR Inten    --     21.8447                14.5550                 6.3520

                     25                     26                     27
                      A                      A                      A
 Frequencies --    890.5602               895.8733               934.0471
 Red. masses --      2.3842                 2.4002                 1.8898
 Frc consts  --      1.1141                 1.1350                 0.9714
 IR Inten    --     18.0236                52.1729                52.1350

                     28                     29                     30
                      A                      A                      A
 Frequencies --    945.8087               951.6632               995.5087
 Red. masses --      2.4895                 1.7960                 1.5304
 Frc consts  --      1.3121                 0.9584                 0.8936
 IR Inten    --     44.5965                32.9202                 8.4871

                     31                     32                     33
                      A                      A                      A
 Frequencies --   1014.5443              1042.5434              1048.4594
 Red. masses --      2.2924                 2.3460                 1.7882
 Frc consts  --      1.3902                 1.5023                 1.1582
 IR Inten    --     40.3619                71.3878                67.9446

                     34                     35                     36
                      A                      A                      A
 Frequencies --   1064.3348              1079.8205              1110.2896
 Red. masses --      1.6592                 1.9822                 2.6655
 Frc consts  --      1.1074                 1.3617                 1.9360
 IR Inten    --     69.4505                57.7584               182.3914

                     37                     38                     39
                      A                      A                      A
 Frequencies --   1142.0595              1149.8815              1159.6131
 Red. masses --      2.9637                 2.4779                 3.3226
 Frc consts  --      2.2775                 1.9304                 2.6325
 IR Inten    --     77.6766                55.4690               100.6583

                     40                     41                     42
                      A                      A                      A
 Frequencies --   1184.2147              1196.0032              1210.8586
 Red. masses --      2.8335                 2.3443                 1.4238
 Frc consts  --      2.3412                 1.9757                 1.2299
 IR Inten    --     80.4783               107.7697                 5.9993

                     43                     44                     45
                      A                      A                      A
 Frequencies --   1219.8088              1242.0781              1252.6627
 Red. masses --      1.4158                 1.7522                 1.6584
 Frc consts  --      1.2412                 1.5927                 1.5332
 IR Inten    --     64.5948                73.9507                18.4733

                     46                     47                     48
                      A                      A                      A
 Frequencies --   1299.5104              1308.0765              1319.5083
 Red. masses --      1.2062                 1.2052                 1.1954
 Frc consts  --      1.2001                 1.2150                 1.2263
 IR Inten    --     19.2385                16.8318                12.0990

                     49                     50                     51
                      A                      A                      A
 Frequencies --   1333.9757              1341.9067              1365.9150
 Red. masses --      1.2808                 1.2790                 1.3418
 Frc consts  --      1.3428                 1.3569                 1.4750
 IR Inten    --     11.6978                 8.5243                 4.5284

                     52                     53                     54
                      A                      A                      A
 Frequencies --   1378.2038              1382.8145              1392.9015
 Red. masses --      1.3371                 1.4157                 1.4812
 Frc consts  --      1.4964                 1.5949                 1.6932
 IR Inten    --     36.8606                 1.3403                 2.6657

                     55                     56                     57
                      A                      A                      A
 Frequencies --   1396.9544              1403.0583              1408.2369
 Red. masses --      1.5611                 1.3527                 1.3464
 Frc consts  --      1.7949                 1.5689                 1.5732
 IR Inten    --     15.5790                 6.4817                 3.2776

                     58                     59                     60
                      A                      A                      A
 Frequencies --   1420.2254              1432.2557              1441.4800
 Red. masses --      1.3912                 1.3412                 1.2663
 Frc consts  --      1.6533                 1.6210                 1.5502
 IR Inten    --      6.3853                16.3421                10.6525

                     61                     62                     63
                      A                      A                      A
 Frequencies --   1465.5078              1481.0129              1484.0829
 Red. masses --      1.1400                 1.0997                 1.0933
 Frc consts  --      1.4425                 1.4211                 1.4188
 IR Inten    --      1.9517                 2.6400                11.3133

                     64                     65                     66
                      A                      A                      A
 Frequencies --   1489.9338              1499.3835              1504.9283
 Red. masses --      1.0979                 1.0922                 1.0960
 Frc consts  --      1.4359                 1.4467                 1.4625
 IR Inten    --     17.3296                11.6210                 1.6446

                     67                     68                     69
                      A                      A                      A
 Frequencies --   1510.4161              1519.2453              1531.2649
 Red. masses --      1.0950                 1.1006                 1.0887
 Frc consts  --      1.4719                 1.4967                 1.5040
 IR Inten    --      2.6015                15.3441                 3.2183

                     70                     71                     72
                      A                      A                      A
 Frequencies --   3016.7956              3052.3167              3064.1427
 Red. masses --      1.0710                 1.0680                 1.0786
 Frc consts  --      5.7430                 5.8627                 5.9665
 IR Inten    --     69.9344                30.8030                62.1812

                     73                     74                     75
                      A                      A                      A
 Frequencies --   3066.6877              3071.7822              3073.9304
 Red. masses --      1.0640                 1.0626                 1.0713
 Frc consts  --      5.8958                 5.9074                 5.9643
 IR Inten    --     48.3732                38.0828                 8.1565

                     76                     77                     78
                      A                      A                      A
 Frequencies --   3086.1619              3090.5846              3093.0588
 Red. masses --      1.0610                 1.0603                 1.0614
 Frc consts  --      5.9539                 5.9670                 5.9827
 IR Inten    --     33.6397                57.8379                39.0461

                     79                     80                     81
                      A                      A                      A
 Frequencies --   3108.0943              3118.4703              3119.3742
 Red. masses --      1.0867                 1.0978                 1.1011
 Frc consts  --      6.1851                 6.2899                 6.3124
 IR Inten    --     61.3750                28.0786                36.4952

                     82                     83                     84
                      A                      A                      A
 Frequencies --   3127.0962              3130.5821              3135.8484
 Red. masses --      1.1018                 1.1022                 1.0990
 Frc consts  --      6.3478                 6.3644                 6.3674
 IR Inten    --     66.1264                 1.3993                14.0255

                     85                     86                     87
                      A                      A                      A
 Frequencies --   3136.4126              3140.0235              3150.9942
 Red. masses --      1.1002                 1.1013                 1.0943
 Frc consts  --      6.3766                 6.3978                 6.4016
 IR Inten    --    102.4099                46.0543                19.6668

 - Thermochemistry -
 -------------------
 Temperature   298.150 Kelvin.  Pressure   1.00000 Atm.
 Atom     1 has atomic number  6 and mass  12.00000

 Molecular mass:   186.12559 amu.
 Principal axes and moments of inertia in atomic units:
                           1         2         3
     Eigenvalues --  1310.448523427.006423505.62343
           X            0.99988   0.01559   0.00223
           Y           -0.01534   0.99627  -0.08493
           Z           -0.00355   0.08488   0.99638
 This molecule is an asymmetric top.
 Rotational symmetry number  1.
 Warning -- assumption of classical behavior for rotation
           may cause significant error
 Rotational temperatures (Kelvin)      0.06609     0.02527     0.02471
 Rotational constants (GHZ):           1.37719     0.52662     0.51481
    1 imaginary frequencies ignored.
 Zero-point vibrational energy     738527.2 (Joules/Mol)
                                  176.51223 (Kcal/Mol)
 Warning -- explicit consideration of  17 degrees of freedom as
           vibrations may cause significant error
 Vibrational temperatures:    133.46   155.48   209.82   286.86   335.73
          (Kelvin)            397.08   421.18   458.03   526.04   557.75
                              619.42   629.51   675.57   692.88   764.13
                              800.37   869.48  1012.92  1141.32  1185.95
                             1204.32  1260.95  1270.04  1281.32  1288.96
                             1343.89  1360.81  1369.23  1432.31  1459.70
                             1499.99  1508.50  1531.34  1553.62  1597.46
                             1643.17  1654.42  1668.42  1703.82  1720.78
                             1742.16  1755.03  1787.07  1802.30  1869.71
                             1882.03  1898.48  1919.29  1930.70  1965.25
                             1982.93  1989.56  2004.07  2009.91  2018.69
                             2026.14  2043.39  2060.70  2073.97  2108.54
                             2130.85  2135.26  2143.68  2157.28  2165.26
                             2173.15  2185.86  2203.15  4340.50  4391.60
                             4408.62  4412.28  4419.61  4422.70  4440.30
                             4446.66  4450.22  4471.85  4486.78  4488.08
                             4499.19  4504.21  4511.79  4512.60  4517.79
                             4533.58

 Zero-point correction=                           0.281290 (Hartree/Particle)
 Thermal correction to Energy=                    0.292079
 Thermal correction to Enthalpy=                  0.293023
 Thermal correction to Gibbs Free Energy=         0.245216
 Sum of electronic and zero-point Energies=           -617.199878
 Sum of electronic and thermal Energies=              -617.189089
 Sum of electronic and thermal Enthalpies=            -617.188145
 Sum of electronic and thermal Free Energies=         -617.235952

                     E (Thermal)             CV                S
                      KCal/Mol        Cal/Mol-Kelvin    Cal/Mol-Kelvin
 Total                  183.282             44.897            100.619
 Electronic               0.000              0.000              0.000
 Translational            0.889              2.981             41.570
 Rotational               0.889              2.981             31.132
 Vibrational            181.505             38.935             27.916
 Vibration     1          0.602              1.954              3.601
 Vibration     2          0.606              1.943              3.303
 Vibration     3          0.617              1.907              2.726
 Vibration     4          0.638              1.841              2.139
 Vibration     5          0.654              1.790              1.853
 Vibration     6          0.678              1.718              1.558
 Vibration     7          0.688              1.687              1.458
 Vibration     8          0.705              1.639              1.319
 Vibration     9          0.739              1.543              1.098
 Vibration    10          0.756              1.497              1.009
 Vibration    11          0.792              1.404              0.857
 Vibration    12          0.798              1.388              0.834
 Vibration    13          0.827              1.318              0.739
 Vibration    14          0.838              1.291              0.706
 Vibration    15          0.886              1.181              0.585
 Vibration    16          0.912              1.126              0.531
 Vibration    17          0.963              1.023              0.442

 Optimization completed.
    -- Stationary point found.
 Normal termination of Gaussian 16 at Sun Nov  4 23:04:57 2018.
