 Gaussian 16, Revision A.03,
 Gaussian 16:  ES64L-G16RevA.03 25-Dec-2016

 ----------------------------------------------------------------------
 #M062X/6-311++G(2d,2p) opt=ModRedundant freq=noraman SCRF=(Solvent=Wat
 er)
 ----------------------------------------------------------------------

 ----------------------------
 D_1a_4e_D_PHI.inp_extract_13
 ----------------------------
 Symbolic Z-matrix:
 Charge =  0 Multiplicity = 1

 SCF Done:  E(RM062X) =  -617.478617996     A.U. after   12 cycles
 SCF Done:  E(RM062X) =  -617.470714995     A.U. after   12 cycles
 SCF Done:  E(RM062X) =  -617.479085912     A.U. after   11 cycles
 SCF Done:  E(RM062X) =  -617.480598292     A.U. after   11 cycles
 SCF Done:  E(RM062X) =  -617.480773153     A.U. after   11 cycles
 SCF Done:  E(RM062X) =  -617.480950896     A.U. after   10 cycles
 SCF Done:  E(RM062X) =  -617.480970933     A.U. after    9 cycles
 SCF Done:  E(RM062X) =  -617.480979951     A.U. after    8 cycles
 SCF Done:  E(RM062X) =  -617.480984779     A.U. after    8 cycles
 SCF Done:  E(RM062X) =  -617.480985315     A.U. after    7 cycles
 SCF Done:  E(RM062X) =  -617.480985698     A.U. after    7 cycles
 Optimization completed.
    -- Stationary point found.
 Normal termination of Gaussian 16 at Sun Nov  4 22:21:01 2018.

 ----------------------------------------------------------------------
 #N Geom=AllCheck Guess=TCheck SCRF=Check GenChk RM062X/6-311++G(2d,2p)
  Freq
 ----------------------------------------------------------------------

 Structure from the checkpoint file:  "D_1a_4e_D_PHI.inp_extract_13.chk"
 ----------------------------
 D_1a_4e_D_PHI.inp_extract_13
 ----------------------------
 Charge =  0 Multiplicity = 1

                         Standard orientation:
 ---------------------------------------------------------------------
 Center     Atomic      Atomic             Coordinates (Angstroms)
 Number     Number       Type             X           Y           Z
 ---------------------------------------------------------------------
      1          6           0        2.684447    0.995648    1.003736
      2          6           0        1.464834   -1.015931   -0.731948
      3          6           0       -1.043057   -0.646934   -0.783450
      4          6           0        1.687405    0.025433    1.624305
      5          8           0       -2.375108    1.346836   -0.614331
      6          6           0       -2.919661    0.945216    0.637490
      7          6           0        2.252234    1.329312   -0.410311
      8          6           0       -1.582331   -1.168305    0.545328
      9          6           0       -1.047390    0.877429   -0.777816
     10          6           0       -2.975786   -0.570014    0.759575
     11          8           0        2.020788    0.182225   -1.231495
     12          8           0        0.163222   -1.243180   -1.240111
     13          6           0        1.664869   -1.238839    0.771229
     14          1           0        3.677321    0.540171    0.989763
     15          1           0        2.752072    1.922522    1.573008
     16          1           0       -1.758325   -0.942005   -1.555515
     17          1           0        1.975390   -0.232431    2.642800
     18          1           0        0.704480    0.495723    1.683487
     19          1           0       -3.912884    1.385255    0.693025
     20          1           0       -2.308630    1.365225    1.446206
     21          1           0        1.359730    1.956554   -0.387215
     22          1           0        3.027601    1.888876   -0.930427
     23          1           0       -0.937612   -0.864164    1.370579
     24          1           0       -1.618024   -2.257873    0.531542
     25          1           0       -3.667000   -0.960900    0.010089
     26          1           0       -3.364705   -0.840725    1.741269
     27          1           0        2.643011   -1.712650    0.875458
     28          1           0        0.930699   -1.966015    1.110250
     29          1           0        2.016187   -1.796410   -1.253940
     30          1           0       -0.432592    1.263376    0.039280
     31          1           0       -0.671310    1.270342   -1.720984
 ---------------------------------------------------------------------

 SCF Done:  E(RM062X) =  -617.480985698     A.U. after    1 cycles

 The electronic state is 1-A.
 Alpha  occ. eigenvalues --  -19.63253 -19.63140 -19.62998 -10.64163 -10.58999
 Alpha  occ. eigenvalues --  -10.58216 -10.58206 -10.58188 -10.53649 -10.53555
 Alpha  occ. eigenvalues --  -10.53398 -10.53320 -10.53269  -1.19048  -1.16710
 Alpha  occ. eigenvalues --   -1.13318  -0.90853  -0.90723  -0.87732  -0.84886
 Alpha  occ. eigenvalues --   -0.75656  -0.74484  -0.73904  -0.70544  -0.67456
 Alpha  occ. eigenvalues --   -0.62414  -0.59928  -0.58344  -0.56686  -0.55746
 Alpha  occ. eigenvalues --   -0.54407  -0.53825  -0.53202  -0.51175  -0.50358
 Alpha  occ. eigenvalues --   -0.49863  -0.47789  -0.46229  -0.45561  -0.44938
 Alpha  occ. eigenvalues --   -0.43552  -0.42222  -0.40789  -0.39994  -0.39660
 Alpha  occ. eigenvalues --   -0.38559  -0.37741  -0.36768  -0.34545  -0.33665
 Alpha  occ. eigenvalues --   -0.31891
 Alpha virt. eigenvalues --   -0.00212   0.00671   0.00801   0.01049   0.02390
 Alpha virt. eigenvalues --    0.02613   0.02699   0.03188   0.03391   0.04989
 Alpha virt. eigenvalues --    0.05078   0.05323   0.05708   0.06094   0.07017

 Mulliken charges:
               1
     1  C   -0.314054
     2  C    0.057514
     3  C   -0.507834
     4  C   -0.312826
     5  O   -0.320671
     6  C   -0.220040
     7  C   -0.276524
     8  C   -0.181473
     9  C   -0.253448
    10  C   -0.326019
    11  O   -0.306052
    12  O   -0.292780
    13  C   -0.443471
    14  H    0.172877
    15  H    0.187522
    16  H    0.258718
    17  H    0.198065
    18  H    0.176494
    19  H    0.217546
    20  H    0.135685
    21  H    0.146377
    22  H    0.207064
    23  H    0.212700
    24  H    0.200096
    25  H    0.180475
    26  H    0.171971
    27  H    0.237258
    28  H    0.214525
    29  H    0.250866
    30  H    0.275962
    31  H    0.253476
 Sum of Mulliken charges =  -0.00000

 Dipole moment (field-independent basis, Debye):
    X=              0.6062    Y=             -0.1654    Z=              4.9039  Tot=              4.9440
 Quadrupole moment (field-independent basis, Debye-Ang):
   XX=            -76.5973   YY=            -80.8838   ZZ=            -84.2953
   XY=              4.4181   XZ=              0.1263   YZ=             -0.1425

  Exact polarizability: 172.534   1.950 159.029  -2.156   0.264 153.782
 Approx polarizability: 149.287   0.412 143.445  -0.694   1.087 141.963

                      1                      2                      3
                      A                      A                      A
 Frequencies --     28.1770                86.3181                97.2058
 Red. masses --      6.1786                 3.7935                 3.1172
 Frc consts  --      0.0029                 0.0167                 0.0174
 IR Inten    --      6.1726                 0.6337                 0.1690

                      4                      5                      6
                      A                      A                      A
 Frequencies --    143.8602               190.1143               228.4162
 Red. masses --      2.9239                 2.9530                 2.6942
 Frc consts  --      0.0357                 0.0629                 0.0828
 IR Inten    --      1.1977                 2.1839                 1.6120

                      7                      8                      9
                      A                      A                      A
 Frequencies --    269.8384               278.2059               323.0355
 Red. masses --      2.0069                 3.8783                 2.1496
 Frc consts  --      0.0861                 0.1769                 0.1322
 IR Inten    --      5.1192                13.2593                 1.6942

                     10                     11                     12
                      A                      A                      A
 Frequencies --    365.0851               398.0491               431.0793
 Red. masses --      2.3469                 2.9881                 2.9108
 Frc consts  --      0.1843                 0.2789                 0.3187
 IR Inten    --      4.7620                 7.0173                 7.2350

                     13                     14                     15
                      A                      A                      A
 Frequencies --    440.5762               455.7058               493.0699
 Red. masses --      2.8521                 3.5821                 3.7208
 Frc consts  --      0.3262                 0.4383                 0.5330
 IR Inten    --      4.3314                 6.3676                 3.3804

                     16                     17                     18
                      A                      A                      A
 Frequencies --    519.6535               566.8025               603.2002
 Red. masses --      2.8869                 1.9512                 2.6651
 Frc consts  --      0.4593                 0.3693                 0.5713
 IR Inten    --      2.3821                13.0389                 4.5418

                     19                     20                     21
                      A                      A                      A
 Frequencies --    704.1878               787.2075               821.6012
 Red. masses --      3.4221                 1.9182                 2.2861
 Frc consts  --      0.9998                 0.7004                 0.9092
 IR Inten    --     12.8522                16.1165                 3.7261

                     22                     23                     24
                      A                      A                      A
 Frequencies --    842.9600               874.5444               882.3604
 Red. masses --      2.5040                 2.0839                 1.4702
 Frc consts  --      1.0483                 0.9391                 0.6744
 IR Inten    --     22.4769                11.1177                 4.8318

                     25                     26                     27
                      A                      A                      A
 Frequencies --    890.8400               897.1267               940.7305
 Red. masses --      2.3562                 2.4549                 2.0055
 Frc consts  --      1.1017                 1.1641                 1.0457
 IR Inten    --     11.7760                46.9258                53.9422

                     28                     29                     30
                      A                      A                      A
 Frequencies --    943.9798               955.9658               996.8340
 Red. masses --      2.4764                 1.6699                 1.4921
 Frc consts  --      1.3002                 0.8991                 0.8736
 IR Inten    --     47.3683                27.5965                10.0522

                     31                     32                     33
                      A                      A                      A
 Frequencies --   1013.4263              1043.2339              1048.2431
 Red. masses --      2.4025                 2.4857                 1.7706
 Frc consts  --      1.4538                 1.5939                 1.1463
 IR Inten    --     45.2152                69.9915                63.7478

                     34                     35                     36
                      A                      A                      A
 Frequencies --   1062.2643              1087.4731              1114.3234
 Red. masses --      1.6463                 1.9752                 2.6888
 Frc consts  --      1.0945                 1.3763                 1.9671
 IR Inten    --     61.1661                85.3775               162.1376

                     37                     38                     39
                      A                      A                      A
 Frequencies --   1141.2788              1146.1030              1161.0742
 Red. masses --      2.5315                 2.8355                 3.1093
 Frc consts  --      1.9427                 2.1944                 2.4696
 IR Inten    --    112.6700                27.4337                80.6168

                     40                     41                     42
                      A                      A                      A
 Frequencies --   1182.0110              1196.3384              1209.3945
 Red. masses --      2.7027                 2.2251                 1.4611
 Frc consts  --      2.2248                 1.8764                 1.2591
 IR Inten    --     78.5930               101.8024                 7.3342

                     43                     44                     45
                      A                      A                      A
 Frequencies --   1223.0056              1243.3620              1251.6852
 Red. masses --      1.4431                 1.7207                 1.6906
 Frc consts  --      1.2718                 1.5673                 1.5606
 IR Inten    --     69.2847                85.2096                23.6756

                     46                     47                     48
                      A                      A                      A
 Frequencies --   1299.4241              1308.0336              1319.4909
 Red. masses --      1.2071                 1.2032                 1.2159
 Frc consts  --      1.2008                 1.2129                 1.2473
 IR Inten    --     14.8282                15.2884                17.8451

                     49                     50                     51
                      A                      A                      A
 Frequencies --   1332.5669              1339.8350              1365.6342
 Red. masses --      1.2939                 1.2779                 1.3645
 Frc consts  --      1.3537                 1.3516                 1.4993
 IR Inten    --     10.7169                 7.4079                 5.6170

                     52                     53                     54
                      A                      A                      A
 Frequencies --   1375.1555              1381.2526              1393.4867
 Red. masses --      1.3343                 1.4242                 1.4077
 Frc consts  --      1.4866                 1.6009                 1.6106
 IR Inten    --     36.1511                 0.0877                 1.1107

                     55                     56                     57
                      A                      A                      A
 Frequencies --   1396.1489              1402.3651              1408.2587
 Red. masses --      1.6042                 1.3665                 1.3150
 Frc consts  --      1.8423                 1.5833                 1.5365
 IR Inten    --     18.8364                 6.3807                 2.7337

                     58                     59                     60
                      A                      A                      A
 Frequencies --   1419.5839              1434.4025              1437.9362
 Red. masses --      1.3801                 1.3223                 1.3131
 Frc consts  --      1.6387                 1.6030                 1.5996
 IR Inten    --      6.9686                 7.1332                13.2149

                     61                     62                     63
                      A                      A                      A
 Frequencies --   1471.8545              1482.3084              1484.1845
 Red. masses --      1.1425                 1.0939                 1.1024
 Frc consts  --      1.4582                 1.4161                 1.4307
 IR Inten    --      6.7029                 4.7619                 7.8949

                     64                     65                     66
                      A                      A                      A
 Frequencies --   1492.7620              1498.4992              1503.0600
 Red. masses --      1.1016                 1.0924                 1.0940
 Frc consts  --      1.4463                 1.4452                 1.4562
 IR Inten    --     14.7976                12.4298                 2.1175

                     67                     68                     69
                      A                      A                      A
 Frequencies --   1508.8659              1519.0639              1543.9982
 Red. masses --      1.0961                 1.1014                 1.0834
 Frc consts  --      1.4703                 1.4975                 1.5217
 IR Inten    --      4.5454                18.1408                 2.9436

                     70                     71                     72
                      A                      A                      A
 Frequencies --   3016.8053              3057.1256              3064.9312
 Red. masses --      1.0709                 1.0708                 1.0691
 Frc consts  --      5.7425                 5.8962                 5.9170
 IR Inten    --     70.3470                16.1463                 6.0837

                     73                     74                     75
                      A                      A                      A
 Frequencies --   3067.5792              3071.3116              3074.1870
 Red. masses --      1.0719                 1.0629                 1.0708
 Frc consts  --      5.9428                 5.9071                 5.9625
 IR Inten    --    108.2926                37.2451                 8.3217

                     76                     77                     78
                      A                      A                      A
 Frequencies --   3081.9392              3083.7329              3088.1673
 Red. masses --      1.0609                 1.0596                 1.0600
 Frc consts  --      5.9373                 5.9368                 5.9562
 IR Inten    --     25.0469                84.5155                28.3055

                     79                     80                     81
                      A                      A                      A
 Frequencies --   3102.0986              3117.8942              3119.1551
 Red. masses --      1.0857                 1.0962                 1.1010
 Frc consts  --      6.1556                 6.2784                 6.3109
 IR Inten    --     63.3262                38.2038                22.5674

                     82                     83                     84
                      A                      A                      A
 Frequencies --   3121.3452              3126.2566              3132.0238
 Red. masses --      1.1027                 1.1040                 1.1023
 Frc consts  --      6.3297                 6.3572                 6.3709
 IR Inten    --     49.5332                63.2969                44.0996

                     85                     86                     87
                      A                      A                      A
 Frequencies --   3134.9990              3140.0077              3147.3197
 Red. masses --      1.0954                 1.1035                 1.0953
 Frc consts  --      6.3430                 6.4101                 6.3926
 IR Inten    --     58.7920                35.9940                20.0304

 - Thermochemistry -
 -------------------
 Temperature   298.150 Kelvin.  Pressure   1.00000 Atm.
 Atom     1 has atomic number  6 and mass  12.00000

 Molecular mass:   186.12559 amu.
 Principal axes and moments of inertia in atomic units:
                           1         2         3
     Eigenvalues --  1341.758523350.487513442.77677
           X            0.99989   0.01437   0.00188
           Y           -0.01421   0.99773  -0.06583
           Z           -0.00282   0.06580   0.99783
 This molecule is an asymmetric top.
 Rotational symmetry number  1.
 Warning -- assumption of classical behavior for rotation
           may cause significant error
 Rotational temperatures (Kelvin)      0.06455     0.02585     0.02516
 Rotational constants (GHZ):           1.34506     0.53865     0.52421
 Zero-point vibrational energy     738365.1 (Joules/Mol)
                                  176.47349 (Kcal/Mol)
 Warning -- explicit consideration of  18 degrees of freedom as
           vibrations may cause significant error
 Vibrational temperatures:     40.54   124.19   139.86   206.98   273.53
          (Kelvin)            328.64   388.24   400.28   464.78   525.28
                              572.70   620.23   633.89   655.66   709.42
                              747.67   815.50   867.87  1013.17  1132.62
                             1182.10  1212.83  1258.27  1269.52  1281.72
                             1290.77  1353.50  1358.18  1375.42  1434.22
                             1458.09  1500.98  1508.19  1528.36  1564.63
                             1603.26  1642.05  1648.99  1670.53  1700.65
                             1721.26  1740.05  1759.63  1788.92  1800.90
                             1869.58  1881.97  1898.45  1917.27  1927.72
                             1964.84  1978.54  1987.31  2004.92  2008.75
                             2017.69  2026.17  2042.46  2063.79  2068.87
                             2117.67  2132.71  2135.41  2147.75  2156.01
                             2162.57  2170.92  2185.59  2221.47  4340.51
                             4398.52  4409.75  4413.56  4418.93  4423.07
                             4434.22  4436.80  4443.18  4463.23  4485.95
                             4487.77  4490.92  4497.99  4506.28  4510.56
                             4517.77  4528.29

 Zero-point correction=                           0.281228 (Hartree/Particle)
 Thermal correction to Energy=                    0.292969
 Thermal correction to Enthalpy=                  0.293913
 Thermal correction to Gibbs Free Energy=         0.243017
 Sum of electronic and zero-point Energies=           -617.199757
 Sum of electronic and thermal Energies=              -617.188016
 Sum of electronic and thermal Enthalpies=            -617.187072
 Sum of electronic and thermal Free Energies=         -617.237969

                     E (Thermal)             CV                S
                      KCal/Mol        Cal/Mol-Kelvin    Cal/Mol-Kelvin
 Total                  183.841             46.913            107.121
 Electronic               0.000              0.000              0.000
 Translational            0.889              2.981             41.570
 Rotational               0.889              2.981             31.115
 Vibrational            182.064             40.952             34.436
 Vibration     1          0.593              1.984              5.954
 Vibration     2          0.601              1.959              3.742
 Vibration     3          0.603              1.951              3.510
 Vibration     4          0.616              1.909              2.752
 Vibration     5          0.633              1.853              2.227
 Vibration     6          0.651              1.798              1.891
 Vibration     7          0.674              1.729              1.597
 Vibration     8          0.679              1.714              1.545
 Vibration     9          0.708              1.629              1.295
 Vibration    10          0.738              1.544              1.100
 Vibration    11          0.764              1.474              0.970
 Vibration    12          0.792              1.403              0.855
 Vibration    13          0.800              1.382              0.825
 Vibration    14          0.814              1.348              0.779
 Vibration    15          0.849              1.265              0.676
 Vibration    16          0.875              1.206              0.611
 Vibration    17          0.923              1.103              0.510
 Vibration    18          0.962              1.025              0.444

 Optimization completed.
    -- Stationary point found.
 Normal termination of Gaussian 16 at Sun Nov  4 23:16:30 2018.
