 Gaussian 16, Revision A.03,
 Gaussian 16:  ES64L-G16RevA.03 25-Dec-2016

 ----------------------------------------------------------------------
 #M062X/6-311++G(2d,2p) opt=ModRedundant freq=noraman SCRF=(Solvent=Wat
 er)
 ----------------------------------------------------------------------

 ----------------------------
 D_1a_4e_D_PHI.inp_extract_21
 ----------------------------
 Symbolic Z-matrix:
 Charge =  0 Multiplicity = 1

 SCF Done:  E(RM062X) =  -617.490851495     A.U. after   12 cycles
 SCF Done:  E(RM062X) =  -617.490917223     A.U. after   11 cycles
 SCF Done:  E(RM062X) =  -617.492151280     A.U. after   11 cycles
 SCF Done:  E(RM062X) =  -617.492765115     A.U. after   10 cycles
 SCF Done:  E(RM062X) =  -617.492940791     A.U. after   10 cycles
 SCF Done:  E(RM062X) =  -617.492950681     A.U. after    9 cycles
 SCF Done:  E(RM062X) =  -617.492955692     A.U. after    9 cycles
 SCF Done:  E(RM062X) =  -617.492956009     A.U. after    7 cycles
 Optimization completed.
    -- Stationary point found.
 Normal termination of Gaussian 16 at Sun Nov  4 22:06:44 2018.

 ----------------------------------------------------------------------
 #N Geom=AllCheck Guess=TCheck SCRF=Check GenChk RM062X/6-311++G(2d,2p)
  Freq
 ----------------------------------------------------------------------

 Structure from the checkpoint file:  "D_1a_4e_D_PHI.inp_extract_21.chk"
 ----------------------------
 D_1a_4e_D_PHI.inp_extract_21
 ----------------------------
 Charge =  0 Multiplicity = 1

                         Standard orientation:
 ---------------------------------------------------------------------
 Center     Atomic      Atomic             Coordinates (Angstroms)
 Number     Number       Type             X           Y           Z
 ---------------------------------------------------------------------
      1          6           0        2.882111    0.697286    1.192373
      2          6           0        1.394640   -0.154055   -1.117331
      3          6           0       -1.008213   -0.628309   -0.580413
      4          6           0        2.983510   -0.756445    0.736537
      5          8           0       -2.796658    0.949827   -0.698107
      6          6           0       -3.352521    0.535336    0.543073
      7          6           0        1.525932    1.253462    0.798144
      8          6           0       -1.551875   -1.187055    0.726932
      9          6           0       -1.379297    0.855992   -0.695436
     10          6           0       -3.056348   -0.931026    0.813011
     11          8           0        1.293718    1.149990   -0.609868
     12          8           0        0.360102   -1.017860   -0.694557
     13          6           0        2.710323   -0.828040   -0.763014
     14          1           0        3.667313    1.292297    0.720129
     15          1           0        3.002551    0.784315    2.272436
     16          1           0       -1.540568   -1.114468   -1.406558
     17          1           0        3.967155   -1.168013    0.959248
     18          1           0        2.247364   -1.358241    1.274003
     19          1           0       -4.422644    0.720272    0.477440
     20          1           0       -2.941228    1.158351    1.346796
     21          1           0        0.739258    0.717025    1.337546
     22          1           0        1.436633    2.312509    1.030044
     23          1           0       -1.038640   -0.698574    1.560009
     24          1           0       -1.332456   -2.253087    0.784588
     25          1           0       -3.576069   -1.538448    0.069204
     26          1           0       -3.441361   -1.209890    1.794004
     27          1           0        3.500031   -0.305257   -1.305854
     28          1           0        2.681936   -1.855592   -1.122209
     29          1           0        1.318673   -0.012974   -2.199607
     30          1           0       -0.983303    1.443241    0.135524
     31          1           0       -1.031504    1.288001   -1.629744
 ---------------------------------------------------------------------

 SCF Done:  E(RM062X) =  -617.492956009     A.U. after    1 cycles

 The electronic state is 1-A.
 Alpha  occ. eigenvalues --  -19.63399 -19.62982 -19.62861 -10.63765 -10.58968
 Alpha  occ. eigenvalues --  -10.58127 -10.58066 -10.57988 -10.53205 -10.53147
 Alpha  occ. eigenvalues --  -10.53129 -10.53076 -10.53031  -1.19832  -1.16470
 Alpha  occ. eigenvalues --   -1.13337  -0.91193  -0.89975  -0.87271  -0.84529
 Alpha  occ. eigenvalues --   -0.75094  -0.74075  -0.73113  -0.70536  -0.66618
 Alpha  occ. eigenvalues --   -0.63148  -0.59823  -0.59254  -0.56751  -0.56314
 Alpha  occ. eigenvalues --   -0.53465  -0.53190  -0.51948  -0.50793  -0.49954
 Alpha  occ. eigenvalues --   -0.49009  -0.46729  -0.45806  -0.45554  -0.45036
 Alpha  occ. eigenvalues --   -0.44415  -0.42365  -0.41049  -0.40030  -0.39723
 Alpha  occ. eigenvalues --   -0.38550  -0.37826  -0.36728  -0.34118  -0.32879
 Alpha  occ. eigenvalues --   -0.32310
 Alpha virt. eigenvalues --   -0.00110   0.00770   0.00813   0.01049   0.02229
 Alpha virt. eigenvalues --    0.02574   0.02705   0.03286   0.03342   0.04613
 Alpha virt. eigenvalues --    0.04924   0.04970   0.05825   0.05858   0.07284

 Mulliken charges:
               1
     1  C   -0.388004
     2  C   -0.100691
     3  C   -0.338511
     4  C   -0.306227
     5  O   -0.361325
     6  C   -0.193575
     7  C   -0.140606
     8  C   -0.049487
     9  C   -0.300296
    10  C   -0.335469
    11  O   -0.240129
    12  O   -0.311387
    13  C   -0.388690
    14  H    0.169132
    15  H    0.173017
    16  H    0.245853
    17  H    0.190804
    18  H    0.162653
    19  H    0.214547
    20  H    0.129240
    21  H    0.155346
    22  H    0.218692
    23  H    0.177603
    24  H    0.177350
    25  H    0.171610
    26  H    0.171344
    27  H    0.197477
    28  H    0.186926
    29  H    0.244146
    30  H    0.232570
    31  H    0.236087
 Sum of Mulliken charges =  -0.00000

 Dipole moment (field-independent basis, Debye):
    X=              1.3110    Y=             -0.6994    Z=              2.6596  Tot=              3.0465
 Quadrupole moment (field-independent basis, Debye-Ang):
   XX=            -76.4952   YY=            -83.7979   ZZ=            -78.2169
   XY=              3.3056   XZ=             -4.4749   YZ=              3.2246

  Exact polarizability: 174.910   0.443 155.407  -2.470   1.553 156.478
 Approx polarizability: 147.821   1.496 141.961  -1.154   0.649 144.394

                      1                      2                      3
                      A                      A                      A
 Frequencies --     13.7594                68.9683               131.1215
 Red. masses --      4.0382                 3.5412                 3.0649
 Frc consts  --      0.0005                 0.0099                 0.0310
 IR Inten    --      3.9549                 0.2149                 1.0107

                      4                      5                      6
                      A                      A                      A
 Frequencies --    153.2234               172.6432               224.9337
 Red. masses --      3.6585                 2.8853                 3.6699
 Frc consts  --      0.0506                 0.0507                 0.1094
 IR Inten    --      6.8518                 0.9403                 2.9686

                      7                      8                      9
                      A                      A                      A
 Frequencies --    264.2017               291.3428               331.9892
 Red. masses --      1.8683                 2.9753                 3.1737
 Frc consts  --      0.0768                 0.1488                 0.2061
 IR Inten    --      2.4599                 3.2224                12.8456

                     10                     11                     12
                      A                      A                      A
 Frequencies --    351.9645               383.4590               433.1872
 Red. masses --      1.9698                 2.7973                 3.0620
 Frc consts  --      0.1438                 0.2423                 0.3385
 IR Inten    --      0.8562                24.5633                 6.0938

                     13                     14                     15
                      A                      A                      A
 Frequencies --    441.2987               460.4809               480.1180
 Red. masses --      3.1054                 3.3294                 2.4077
 Frc consts  --      0.3563                 0.4159                 0.3270
 IR Inten    --      3.4109                 1.3608                 1.2138

                     16                     17                     18
                      A                      A                      A
 Frequencies --    539.9284               568.0400               654.7560
 Red. masses --      2.1952                 1.9728                 4.8400
 Frc consts  --      0.3770                 0.3751                 1.2225
 IR Inten    --      2.2625                10.0887                 5.9558

                     19                     20                     21
                      A                      A                      A
 Frequencies --    704.4684               818.2275               831.7399
 Red. masses --      2.8132                 2.0783                 2.0889
 Frc consts  --      0.8226                 0.8198                 0.8514
 IR Inten    --      0.7844                 0.6823                 0.0309

                     22                     23                     24
                      A                      A                      A
 Frequencies --    841.2246               873.2695               888.0112
 Red. masses --      2.3500                 1.4117                 2.4390
 Frc consts  --      0.9798                 0.6343                 1.1332
 IR Inten    --      7.4884                10.6174                 7.6950

                     25                     26                     27
                      A                      A                      A
 Frequencies --    899.1096               907.1541               925.6644
 Red. masses --      2.3529                 2.5515                 1.8875
 Frc consts  --      1.1207                 1.2371                 0.9529
 IR Inten    --     23.3695                16.9193                25.1606

                     28                     29                     30
                      A                      A                      A
 Frequencies --    941.9687               974.3263               994.1284
 Red. masses --      2.0351                 1.7061                 1.9178
 Frc consts  --      1.0639                 0.9542                 1.1167
 IR Inten    --     36.1731                32.0793                31.0658

                     31                     32                     33
                      A                      A                      A
 Frequencies --   1013.9124              1039.0395              1050.6144
 Red. masses --      2.1558                 2.2239                 1.7073
 Frc consts  --      1.3058                 1.4146                 1.1103
 IR Inten    --     31.1135                45.9464                62.0768

                     34                     35                     36
                      A                      A                      A
 Frequencies --   1065.1453              1074.4968              1114.2950
 Red. masses --      1.5289                 2.1779                 3.2309
 Frc consts  --      1.0220                 1.4815                 2.3636
 IR Inten    --     65.2213                 9.6643               216.8486

                     37                     38                     39
                      A                      A                      A
 Frequencies --   1139.6697              1151.3188              1169.1725
 Red. masses --      3.6485                 2.5796                 2.7001
 Frc consts  --      2.7920                 2.0146                 2.1747
 IR Inten    --    127.4034               103.8277                19.4341

                     40                     41                     42
                      A                      A                      A
 Frequencies --   1182.4125              1192.5115              1210.9173
 Red. masses --      2.4223                 3.4249                 1.4018
 Frc consts  --      1.9954                 2.8696                 1.2110
 IR Inten    --     46.2044               255.4631                10.3064

                     43                     44                     45
                      A                      A                      A
 Frequencies --   1213.9175              1237.0108              1252.4127
 Red. masses --      1.4703                 1.7049                 1.5325
 Frc consts  --      1.2765                 1.5371                 1.4163
 IR Inten    --     23.2227                70.3642                 1.1531

                     46                     47                     48
                      A                      A                      A
 Frequencies --   1290.6842              1304.3775              1326.2054
 Red. masses --      1.2177                 1.1469                 1.1665
 Frc consts  --      1.1952                 1.1497                 1.2088
 IR Inten    --     23.3433                 7.3631                10.5309

                     49                     50                     51
                      A                      A                      A
 Frequencies --   1340.2041              1344.7018              1360.1146
 Red. masses --      1.3050                 1.2821                 1.3602
 Frc consts  --      1.3810                 1.3659                 1.4826
 IR Inten    --     13.6482                 5.3949                 6.9819

                     52                     53                     54
                      A                      A                      A
 Frequencies --   1372.1497              1383.7296              1387.5159
 Red. masses --      1.1952                 1.4221                 1.4184
 Frc consts  --      1.3258                 1.6043                 1.6089
 IR Inten    --     13.6573                 1.6267                 6.4115

                     55                     56                     57
                      A                      A                      A
 Frequencies --   1392.9226              1398.7153              1409.5838
 Red. masses --      1.7201                 1.3841                 1.3686
 Frc consts  --      1.9663                 1.5954                 1.6022
 IR Inten    --     15.5716                28.0093                12.1429

                     58                     59                     60
                      A                      A                      A
 Frequencies --   1415.1422              1415.9605              1430.0351
 Red. masses --      1.4459                 1.2678                 1.3359
 Frc consts  --      1.7061                 1.4976                 1.6096
 IR Inten    --      3.9530                 2.2740                 6.3259

                     61                     62                     63
                      A                      A                      A
 Frequencies --   1449.0008              1474.7846              1481.0870
 Red. masses --      1.3146                 1.1029                 1.0924
 Frc consts  --      1.6262                 1.4133                 1.4118
 IR Inten    --     16.0612                 5.7835                 5.2366

                     64                     65                     66
                      A                      A                      A
 Frequencies --   1482.6233              1491.1164              1495.2108
 Red. masses --      1.0876                 1.0980                 1.1114
 Frc consts  --      1.4086                 1.4384                 1.4640
 IR Inten    --      9.3452                10.1155                16.1527

                     67                     68                     69
                      A                      A                      A
 Frequencies --   1497.2816              1511.5438              1512.2449
 Red. masses --      1.1021                 1.0936                 1.1003
 Frc consts  --      1.4557                 1.4722                 1.4825
 IR Inten    --      1.0098                 2.5366                 7.7097

                     70                     71                     72
                      A                      A                      A
 Frequencies --   3018.3597              3020.3815              3047.2278
 Red. masses --      1.0798                 1.0731                 1.0830
 Frc consts  --      5.7961                 5.7680                 5.9252
 IR Inten    --     88.9407                36.0222               100.1735

                     73                     74                     75
                      A                      A                      A
 Frequencies --   3052.5933              3061.6500              3065.3198
 Red. masses --      1.0690                 1.0654                 1.0640
 Frc consts  --      5.8687                 5.8839                 5.8906
 IR Inten    --     35.7414                34.5013                31.4687

                     76                     77                     78
                      A                      A                      A
 Frequencies --   3070.3411              3070.9301              3077.4675
 Red. masses --      1.0622                 1.0617                 1.0636
 Frc consts  --      5.8997                 5.8994                 5.9348
 IR Inten    --     36.5126                40.3608                58.8735

                     79                     80                     81
                      A                      A                      A
 Frequencies --   3080.3996              3115.7991              3116.0085
 Red. masses --      1.0648                 1.0980                 1.0977
 Frc consts  --      5.9527                 6.2802                 6.2797
 IR Inten    --     51.7274                37.0384                37.1625

                     82                     83                     84
                      A                      A                      A
 Frequencies --   3120.3599              3121.3309              3132.9021
 Red. masses --      1.1025                 1.1028                 1.0949
 Frc consts  --      6.3245                 6.3306                 6.3314
 IR Inten    --     60.9528                66.2305                49.9422

                     85                     86                     87
                      A                      A                      A
 Frequencies --   3134.1395              3136.3277              3156.4776
 Red. masses --      1.1014                 1.0983                 1.1023
 Frc consts  --      6.3743                 6.3650                 6.4709
 IR Inten    --     35.3330                32.5876                35.2304

 - Thermochemistry -
 -------------------
 Temperature   298.150 Kelvin.  Pressure   1.00000 Atm.
 Atom     1 has atomic number  6 and mass  12.00000

 Molecular mass:   186.12559 amu.
 Principal axes and moments of inertia in atomic units:
                           1         2         3
     Eigenvalues --  1078.594263831.639873952.74347
           X            0.99998   0.00403  -0.00378
           Y           -0.00379   0.99815   0.06076
           Z            0.00401  -0.06074   0.99815
 This molecule is an asymmetric top.
 Rotational symmetry number  1.
 Warning -- assumption of classical behavior for rotation
           may cause significant error
 Rotational temperatures (Kelvin)      0.08030     0.02260     0.02191
 Rotational constants (GHZ):           1.67323     0.47101     0.45658
 Zero-point vibrational energy     737118.0 (Joules/Mol)
                                  176.17543 (Kcal/Mol)
 Warning -- explicit consideration of  17 degrees of freedom as
           vibrations may cause significant error
 Vibrational temperatures:     19.80    99.23   188.65   220.45   248.40
          (Kelvin)            323.63   380.13   419.18   477.66   506.40
                              551.71   623.26   634.93   662.53   690.78
                              776.84   817.28   942.05  1013.57  1177.25
                             1196.69  1210.33  1256.44  1277.65  1293.62
                             1305.19  1331.82  1355.28  1401.84  1430.33
                             1458.79  1494.95  1511.60  1532.51  1545.96
                             1603.22  1639.73  1656.49  1682.18  1701.23
                             1715.76  1742.24  1746.56  1779.78  1801.94
                             1857.01  1876.71  1908.11  1928.25  1934.73
                             1956.90  1974.22  1990.88  1996.33  2004.10
                             2012.44  2028.08  2036.07  2037.25  2057.50
                             2084.79  2121.89  2130.95  2133.16  2145.38
                             2151.27  2154.25  2174.77  2175.78  4342.75
                             4345.66  4384.28  4392.00  4405.03  4410.31
                             4417.54  4418.38  4427.79  4432.01  4482.94
                             4483.24  4489.50  4490.90  4507.55  4509.33
                             4512.48  4541.47

 Zero-point correction=                           0.280753 (Hartree/Particle)
 Thermal correction to Energy=                    0.292476
 Thermal correction to Enthalpy=                  0.293420
 Thermal correction to Gibbs Free Energy=         0.241904
 Sum of electronic and zero-point Energies=           -617.212203
 Sum of electronic and thermal Energies=              -617.200480
 Sum of electronic and thermal Enthalpies=            -617.199536
 Sum of electronic and thermal Free Energies=         -617.251052

                     E (Thermal)             CV                S
                      KCal/Mol        Cal/Mol-Kelvin    Cal/Mol-Kelvin
 Total                  183.531             46.762            108.426
 Electronic               0.000              0.000              0.000
 Translational            0.889              2.981             41.570
 Rotational               0.889              2.981             31.169
 Vibrational            181.754             40.800             35.687
 Vibration     1          0.593              1.986              7.377
 Vibration     2          0.598              1.969              4.183
 Vibration     3          0.612              1.922              2.930
 Vibration     4          0.619              1.899              2.632
 Vibration     5          0.626              1.876              2.407
 Vibration     6          0.650              1.803              1.919
 Vibration     7          0.671              1.739              1.634
 Vibration     8          0.687              1.690              1.466
 Vibration     9          0.714              1.612              1.250
 Vibration    10          0.729              1.571              1.157
 Vibration    11          0.753              1.505              1.025
 Vibration    12          0.794              1.398              0.848
 Vibration    13          0.801              1.380              0.823
 Vibration    14          0.818              1.338              0.765
 Vibration    15          0.836              1.294              0.710
 Vibration    16          0.895              1.162              0.565
 Vibration    17          0.924              1.100              0.508

 Optimization completed.
    -- Stationary point found.
 Normal termination of Gaussian 16 at Sun Nov  4 23:00:11 2018.
