 Gaussian 16, Revision A.03,
 Gaussian 16:  ES64L-G16RevA.03 25-Dec-2016

 ----------------------------------------------------------------------
 #M062X/6-311++G(2d,2p) opt=ModRedundant freq=noraman SCRF=(Solvent=Wat
 er)
 ----------------------------------------------------------------------

 ---------------------------
 D_1a_4e_D_PHI.inp_extract_1
 ---------------------------
 Symbolic Z-matrix:
 Charge =  0 Multiplicity = 1

 SCF Done:  E(RM062X) =  -617.497689484     A.U. after   12 cycles
 SCF Done:  E(RM062X) =  -617.499334232     A.U. after   10 cycles
 SCF Done:  E(RM062X) =  -617.499492298     A.U. after   10 cycles
 SCF Done:  E(RM062X) =  -617.499548478     A.U. after    9 cycles
 SCF Done:  E(RM062X) =  -617.499550501     A.U. after    9 cycles
 SCF Done:  E(RM062X) =  -617.499551046     A.U. after    8 cycles
 Optimization completed.
    -- Stationary point found.
 Normal termination of Gaussian 16 at Sun Nov  4 21:55:43 2018.

 ----------------------------------------------------------------------
 #N Geom=AllCheck Guess=TCheck SCRF=Check GenChk RM062X/6-311++G(2d,2p)
  Freq
 ----------------------------------------------------------------------

 Structure from the checkpoint file:  "D_1a_4e_D_PHI.inp_extract_1.chk"
 ---------------------------
 D_1a_4e_D_PHI.inp_extract_1
 ---------------------------
 Charge =  0 Multiplicity = 1

                         Standard orientation:
 ---------------------------------------------------------------------
 Center     Atomic      Atomic             Coordinates (Angstroms)
 Number     Number       Type             X           Y           Z
 ---------------------------------------------------------------------
      1          6           0       -3.716298    0.324609   -0.164492
      2          6           0       -0.979783   -0.182494    0.570363
      3          6           0        1.083262   -0.077865   -0.688327
      4          6           0       -3.133442   -1.073463   -0.363336
      5          8           0        3.201842   -1.145932   -0.198833
      6          6           0        3.679597    0.008262    0.481676
      7          6           0       -2.603057    1.357000   -0.226957
      8          6           0        1.553155    1.217363   -0.037947
      9          6           0        1.798067   -1.281778   -0.077527
     10          6           0        3.080885    1.278134   -0.101111
     11          8           0       -1.580854    1.083169    0.732078
     12          8           0       -0.327234   -0.263891   -0.676718
     13          6           0       -2.011277   -1.299252    0.648111
     14          1           0       -4.205704    0.385657    0.810605
     15          1           0       -4.462915    0.553724   -0.925478
     16          1           0        1.346231   -0.046841   -1.747621
     17          1           0       -3.903135   -1.835809   -0.248563
     18          1           0       -2.735754   -1.161800   -1.376432
     19          1           0        4.762406   -0.004581    0.379089
     20          1           0        3.430253   -0.072188    1.546956
     21          1           0       -2.163001    1.378795   -1.227388
     22          1           0       -2.967255    2.353920    0.010758
     23          1           0        1.234962    1.247651    1.006933
     24          1           0        1.099716    2.070321   -0.542691
     25          1           0        3.407874    1.377999   -1.138257
     26          1           0        3.454292    2.142960    0.447353
     27          1           0       -2.422311   -1.302809    1.659609
     28          1           0       -1.507086   -2.251672    0.486127
     29          1           0       -0.267260   -0.260705    1.389457
     30          1           0        1.528367   -1.394225    0.980123
     31          1           0        1.513627   -2.190267   -0.605519
 ---------------------------------------------------------------------

 SCF Done:  E(RM062X) =  -617.499551046     A.U. after    1 cycles

 The electronic state is 1-A.
 Alpha  occ. eigenvalues --  -19.63263 -19.63259 -19.62806 -10.63535 -10.59015
 Alpha  occ. eigenvalues --  -10.58206 -10.58142 -10.57656 -10.53370 -10.53314
 Alpha  occ. eigenvalues --  -10.53022 -10.52966 -10.52818  -1.19875  -1.16741
 Alpha  occ. eigenvalues --   -1.13427  -0.90863  -0.89701  -0.87229  -0.84794
 Alpha  occ. eigenvalues --   -0.74754  -0.74384  -0.72922  -0.71165  -0.66760
 Alpha  occ. eigenvalues --   -0.62637  -0.60505  -0.58750  -0.56650  -0.55261
 Alpha  occ. eigenvalues --   -0.54369  -0.53392  -0.52583  -0.50863  -0.49832
 Alpha  occ. eigenvalues --   -0.48850  -0.46431  -0.46197  -0.45446  -0.44968
 Alpha  occ. eigenvalues --   -0.43908  -0.43381  -0.40970  -0.40335  -0.39374
 Alpha  occ. eigenvalues --   -0.38436  -0.37818  -0.37179  -0.34739  -0.33114
 Alpha  occ. eigenvalues --   -0.31774
 Alpha virt. eigenvalues --   -0.00062   0.00668   0.00799   0.01121   0.02171
 Alpha virt. eigenvalues --    0.02498   0.02627   0.03344   0.03578   0.04341
 Alpha virt. eigenvalues --    0.04562   0.04886   0.05548   0.05979   0.06920

 Mulliken charges:
               1
     1  C   -0.429137
     2  C   -0.064993
     3  C   -0.355173
     4  C   -0.284013
     5  O   -0.346015
     6  C   -0.164869
     7  C   -0.105155
     8  C   -0.047021
     9  C   -0.212674
    10  C   -0.454150
    11  O   -0.263469
    12  O   -0.291886
    13  C   -0.432282
    14  H    0.162127
    15  H    0.171401
    16  H    0.253442
    17  H    0.183221
    18  H    0.182153
    19  H    0.218998
    20  H    0.132762
    21  H    0.157967
    22  H    0.204219
    23  H    0.217367
    24  H    0.177577
    25  H    0.176687
    26  H    0.168422
    27  H    0.191200
    28  H    0.164904
    29  H    0.311105
    30  H    0.179792
    31  H    0.197491
 Sum of Mulliken charges =  -0.00000

 Dipole moment (field-independent basis, Debye):
    X=             -0.7304    Y=              0.5393    Z=              0.7776  Tot=              1.1954
 Quadrupole moment (field-independent basis, Debye-Ang):
   XX=            -76.8009   YY=            -81.2847   ZZ=            -80.5377
   XY=              7.4728   XZ=              4.0183   YZ=             -3.5600

  Exact polarizability: 176.710   1.036 159.008   0.813  -1.094 148.584
 Approx polarizability: 147.756  -0.185 141.361  -0.492   0.888 142.579

                      1                      2                      3
                      A                      A                      A
 Frequencies --     16.8566                77.0388                86.1756
 Red. masses --      4.3511                 3.3892                 3.2274
 Frc consts  --      0.0007                 0.0119                 0.0141
 IR Inten    --      1.9085                 0.6105                 2.2803

                      4                      5                      6
                      A                      A                      A
 Frequencies --    126.1093               215.6237               222.9398
 Red. masses --      3.3429                 2.8512                 3.5196
 Frc consts  --      0.0313                 0.0781                 0.1031
 IR Inten    --      2.1615                 2.9510                 1.7379

                      7                      8                      9
                      A                      A                      A
 Frequencies --    241.9652               298.9505               319.3268
 Red. masses --      2.0100                 2.3197                 2.9838
 Frc consts  --      0.0693                 0.1221                 0.1793
 IR Inten    --      6.0122                 0.2849                 8.8165

                     10                     11                     12
                      A                      A                      A
 Frequencies --    371.1556               400.4541               436.5406
 Red. masses --      2.3011                 2.3733                 3.5344
 Frc consts  --      0.1868                 0.2242                 0.3968
 IR Inten    --     15.7678                10.4516                 8.7801

                     13                     14                     15
                      A                      A                      A
 Frequencies --    436.7408               458.8762               497.5291
 Red. masses --      2.7258                 3.4817                 2.5004
 Frc consts  --      0.3063                 0.4320                 0.3647
 IR Inten    --      1.8994                 0.6693                 2.3700

                     16                     17                     18
                      A                      A                      A
 Frequencies --    537.3613               571.5742               611.3987
 Red. masses --      1.9497                 3.7631                 2.8338
 Frc consts  --      0.3317                 0.7243                 0.6241
 IR Inten    --      6.9512                17.8592                 2.3562

                     19                     20                     21
                      A                      A                      A
 Frequencies --    712.6109               821.0026               837.8298
 Red. masses --      2.9596                 2.1051                 1.5851
 Frc consts  --      0.8855                 0.8360                 0.6556
 IR Inten    --      3.5543                 0.9799                 1.4512

                     22                     23                     24
                      A                      A                      A
 Frequencies --    847.4115               871.3233               888.6841
 Red. masses --      3.1850                 1.4084                 2.3959
 Frc consts  --      1.3475                 0.6300                 1.1148
 IR Inten    --      8.3994                 9.2786                11.3284

                     25                     26                     27
                      A                      A                      A
 Frequencies --    897.5505               904.9669               932.2472
 Red. masses --      2.2913                 2.3810                 1.8118
 Frc consts  --      1.0875                 1.1489                 0.9277
 IR Inten    --     23.7960                35.3917                31.5055

                     28                     29                     30
                      A                      A                      A
 Frequencies --    945.5794               978.4749               994.4603
 Red. masses --      2.3900                 1.7672                 1.6491
 Frc consts  --      1.2591                 0.9969                 0.9609
 IR Inten    --     30.5787                84.8112                 3.4913

                     31                     32                     33
                      A                      A                      A
 Frequencies --   1007.5372              1046.2284              1052.6032
 Red. masses --      2.1708                 2.1128                 1.7416
 Frc consts  --      1.2984                 1.3626                 1.1369
 IR Inten    --     38.9647                58.8581                16.1617

                     34                     35                     36
                      A                      A                      A
 Frequencies --   1066.5085              1074.0111              1125.5119
 Red. masses --      1.4989                 2.3790                 4.7003
 Frc consts  --      1.0045                 1.6168                 3.5082
 IR Inten    --     75.9520                16.4259               362.4119

                     37                     38                     39
                      A                      A                      A
 Frequencies --   1148.1969              1150.4422              1157.4214
 Red. masses --      2.6913                 2.1104                 3.0009
 Frc consts  --      2.0905                 1.6457                 2.3686
 IR Inten    --     50.1936                19.7307                75.9095

                     40                     41                     42
                      A                      A                      A
 Frequencies --   1168.8065              1190.9121              1210.0042
 Red. masses --      4.0254                 2.4227                 1.4250
 Frc consts  --      3.2400                 2.0245                 1.2293
 IR Inten    --    158.6881                38.7133                14.7451

                     43                     44                     45
                      A                      A                      A
 Frequencies --   1212.7929              1235.0775              1252.1364
 Red. masses --      1.4788                 1.6980                 1.5418
 Frc consts  --      1.2815                 1.5261                 1.4242
 IR Inten    --     26.9535                65.2627                16.7288

                     46                     47                     48
                      A                      A                      A
 Frequencies --   1285.6416              1307.3940              1318.4940
 Red. masses --      1.2140                 1.1887                 1.1539
 Frc consts  --      1.1823                 1.1971                 1.1819
 IR Inten    --     11.4675                13.1603                10.0651

                     49                     50                     51
                      A                      A                      A
 Frequencies --   1331.3749              1344.6034              1359.0022
 Red. masses --      1.3142                 1.2810                 1.3487
 Frc consts  --      1.3725                 1.3646                 1.4676
 IR Inten    --      5.1675                10.1406                 7.7688

                     52                     53                     54
                      A                      A                      A
 Frequencies --   1364.7647              1382.4580              1384.9683
 Red. masses --      1.2528                 1.4270                 1.4717
 Frc consts  --      1.3748                 1.6068                 1.6632
 IR Inten    --      7.0958                 1.9676                 1.9739

                     55                     56                     57
                      A                      A                      A
 Frequencies --   1390.6481              1397.5062              1403.9378
 Red. masses --      1.7100                 1.3864                 1.3182
 Frc consts  --      1.9485                 1.5953                 1.5309
 IR Inten    --     10.2702                 9.2293                 6.1226

                     58                     59                     60
                      A                      A                      A
 Frequencies --   1414.2414              1415.8093              1431.4900
 Red. masses --      1.3343                 1.3896                 1.4125
 Frc consts  --      1.5724                 1.6412                 1.7053
 IR Inten    --     22.6943                20.1045                12.3963

                     61                     62                     63
                      A                      A                      A
 Frequencies --   1438.0527              1477.1584              1480.4152
 Red. masses --      1.2702                 1.1050                 1.0925
 Frc consts  --      1.5477                 1.4206                 1.4107
 IR Inten    --     11.4072                 4.2526                 6.9172

                     64                     65                     66
                      A                      A                      A
 Frequencies --   1483.3100              1492.2422              1496.6867
 Red. masses --      1.0860                 1.1193                 1.1056
 Frc consts  --      1.4079                 1.4684                 1.4592
 IR Inten    --      8.4266                10.1621                15.0790

                     67                     68                     69
                      A                      A                      A
 Frequencies --   1501.0878              1512.1762              1514.1443
 Red. masses --      1.0897                 1.0936                 1.1035
 Frc consts  --      1.4466                 1.4734                 1.4906
 IR Inten    --      0.0461                 2.5906                11.4372

                     70                     71                     72
                      A                      A                      A
 Frequencies --   3018.8215              3020.6630              3058.6470
 Red. masses --      1.0695                 1.0700                 1.0684
 Frc consts  --      5.7425                 5.7523                 5.8891
 IR Inten    --     36.4493                94.3074                40.9520

                     73                     74                     75
                      A                      A                      A
 Frequencies --   3064.9642              3065.8653              3070.3130
 Red. masses --      1.0624                 1.0660                 1.0622
 Frc consts  --      5.8801                 5.9036                 5.8994
 IR Inten    --     45.0474                12.0306                32.2372

                     76                     77                     78
                      A                      A                      A
 Frequencies --   3071.9956              3074.4060              3081.4078
 Red. masses --      1.0642                 1.0603                 1.0818
 Frc consts  --      5.9172                 5.9048                 6.0517
 IR Inten    --     22.3130                37.1970                59.1022

                     79                     80                     81
                      A                      A                      A
 Frequencies --   3112.7871              3116.6831              3118.2694
 Red. masses --      1.0976                 1.0973                 1.1019
 Frc consts  --      6.2661                 6.2801                 6.3127
 IR Inten    --     49.8212                31.9854                38.9159

                     82                     83                     84
                      A                      A                      A
 Frequencies --   3120.5793              3124.8534              3125.8116
 Red. masses --      1.0960                 1.0958                 1.1042
 Frc consts  --      6.2884                 6.3045                 6.3566
 IR Inten    --     27.4424                60.1585                50.5220

                     85                     86                     87
                      A                      A                      A
 Frequencies --   3129.8691              3135.2536              3135.9989
 Red. masses --      1.0956                 1.0949                 1.0995
 Frc consts  --      6.3233                 6.3412                 6.3709
 IR Inten    --     68.9759                44.0628                46.6122

 - Thermochemistry -
 -------------------
 Temperature   298.150 Kelvin.  Pressure   1.00000 Atm.
 Atom     1 has atomic number  6 and mass  12.00000

 Molecular mass:   186.12559 amu.
 Principal axes and moments of inertia in atomic units:
                           1         2         3
     Eigenvalues --   896.242384269.630524763.73723
           X            0.99989   0.01384   0.00570
           Y           -0.01368   0.99952  -0.02790
           Z           -0.00608   0.02782   0.99959
 This molecule is an asymmetric top.
 Rotational symmetry number  1.
 Warning -- assumption of classical behavior for rotation
           may cause significant error
 Rotational temperatures (Kelvin)      0.09664     0.02029     0.01818
 Rotational constants (GHZ):           2.01368     0.42269     0.37885
 Zero-point vibrational energy     737089.5 (Joules/Mol)
                                  176.16862 (Kcal/Mol)
 Warning -- explicit consideration of  18 degrees of freedom as
           vibrations may cause significant error
 Vibrational temperatures:     24.25   110.84   123.99   181.44   310.23
          (Kelvin)            320.76   348.13   430.12   459.44   534.01
                              576.16   628.08   628.37   660.22   715.83
                              773.14   822.37   879.67  1025.29  1181.24
                             1205.45  1219.24  1253.64  1278.62  1291.37
                             1302.05  1341.30  1360.48  1407.81  1430.81
                             1449.62  1505.29  1514.46  1534.47  1545.26
                             1619.36  1652.00  1655.23  1665.27  1681.65
                             1713.46  1740.93  1744.94  1777.00  1801.55
                             1849.75  1881.05  1897.02  1915.55  1934.58
                             1955.30  1963.59  1989.05  1992.66  2000.83
                             2010.70  2019.95  2034.78  2037.03  2059.59
                             2069.04  2125.30  2129.99  2134.15  2147.00
                             2153.40  2159.73  2175.68  2178.52  4343.41
                             4346.06  4400.71  4409.80  4411.10  4417.50
                             4419.92  4423.38  4433.46  4478.61  4484.21
                             4486.49  4489.82  4495.97  4497.35  4503.18
                             4510.93  4512.00

 Zero-point correction=                           0.280743 (Hartree/Particle)
 Thermal correction to Energy=                    0.292512
 Thermal correction to Enthalpy=                  0.293456
 Thermal correction to Gibbs Free Energy=         0.241789
 Sum of electronic and zero-point Energies=           -617.218808
 Sum of electronic and thermal Energies=              -617.207039
 Sum of electronic and thermal Enthalpies=            -617.206095
 Sum of electronic and thermal Free Energies=         -617.257762

                     E (Thermal)             CV                S
                      KCal/Mol        Cal/Mol-Kelvin    Cal/Mol-Kelvin
 Total                  183.554             46.763            108.743
 Electronic               0.000              0.000              0.000
 Translational            0.889              2.981             41.570
 Rotational               0.889              2.981             31.278
 Vibrational            181.776             40.802             35.895
 Vibration     1          0.593              1.986              6.974
 Vibration     2          0.599              1.964              3.965
 Vibration     3          0.601              1.959              3.745
 Vibration     4          0.611              1.927              3.005
 Vibration     5          0.645              1.817              1.996
 Vibration     6          0.649              1.806              1.935
 Vibration     7          0.658              1.776              1.788
 Vibration     8          0.692              1.676              1.423
 Vibration     9          0.705              1.637              1.314
 Vibration    10          0.743              1.531              1.075
 Vibration    11          0.766              1.469              0.961
 Vibration    12          0.797              1.391              0.838
 Vibration    13          0.797              1.390              0.837
 Vibration    14          0.817              1.341              0.769
 Vibration    15          0.853              1.255              0.664
 Vibration    16          0.892              1.167              0.571
 Vibration    17          0.928              1.093              0.501
 Vibration    18          0.971              1.008              0.430

                           ! Non-Optimized Parameters !
 Normal termination of Gaussian 16 at Sun Nov  4 22:49:55 2018.
