 Gaussian 16, Revision A.03,
 Gaussian 16:  ES64L-G16RevA.03 25-Dec-2016

 ----------------------------------------------------------------------
 #M062X/6-311++G(2d,2p) opt=ModRedundant freq=noraman SCRF=(Solvent=Wat
 er)
 ----------------------------------------------------------------------

 ---------------------------
 D_1a_4e_D_PHI.inp_extract_0
 ---------------------------
 Symbolic Z-matrix:
 Charge =  0 Multiplicity = 1

 SCF Done:  E(RM062X) =  -617.498588634     A.U. after   12 cycles
 SCF Done:  E(RM062X) =  -617.500227573     A.U. after   10 cycles
 SCF Done:  E(RM062X) =  -617.500489540     A.U. after   10 cycles
 SCF Done:  E(RM062X) =  -617.500567168     A.U. after   10 cycles
 SCF Done:  E(RM062X) =  -617.500571563     A.U. after    8 cycles
 SCF Done:  E(RM062X) =  -617.500571904     A.U. after    7 cycles
 SCF Done:  E(RM062X) =  -617.500571931     A.U. after    6 cycles
 Optimization completed.
    -- Stationary point found.
 Normal termination of Gaussian 16 at Sun Nov  4 21:58:37 2018.

 ----------------------------------------------------------------------
 #N Geom=AllCheck Guess=TCheck SCRF=Check GenChk RM062X/6-311++G(2d,2p)
  Freq
 ----------------------------------------------------------------------

 Structure from the checkpoint file:  "D_1a_4e_D_PHI.inp_extract_0.chk"
 ---------------------------
 D_1a_4e_D_PHI.inp_extract_0
 ---------------------------
 Charge =  0 Multiplicity = 1

                         Standard orientation:
 ---------------------------------------------------------------------
 Center     Atomic      Atomic             Coordinates (Angstroms)
 Number     Number       Type             X           Y           Z
 ---------------------------------------------------------------------
      1          6           0       -3.626179    0.525794   -0.206544
      2          6           0       -1.003521   -0.343457    0.601325
      3          6           0        1.055315   -0.178977   -0.660986
      4          6           0       -3.220018   -0.931800   -0.418570
      5          8           0        3.263992   -1.068682   -0.202193
      6          6           0        3.664267    0.133287    0.444344
      7          6           0       -2.389471    1.409142   -0.204481
      8          6           0        1.431660    1.155173   -0.028880
      9          6           0        1.877722   -1.311011   -0.047557
     10          6           0        2.946653    1.338752   -0.140813
     11          8           0       -1.446295    0.984997    0.779528
     12          8           0       -0.331884   -0.499419   -0.625479
     13          6           0       -2.169071   -1.321053    0.620160
     14          1           0       -4.139666    0.630068    0.752413
     15          1           0       -4.309277    0.862930   -0.986795
     16          1           0        1.299346   -0.137402   -1.724676
     17          1           0       -4.084571   -1.590412   -0.343070
     18          1           0       -2.805248   -1.052732   -1.421258
     19          1           0        4.741296    0.206696    0.310408
     20          1           0        3.452110    0.053300    1.517695
     21          1           0       -1.913888    1.398382   -1.188956
     22          1           0       -2.633046    2.438686    0.048446
     23          1           0        1.144697    1.161449    1.024940
     24          1           0        0.892697    1.966545   -0.517435
     25          1           0        3.234801    1.447044   -1.188695
     26          1           0        3.262875    2.240818    0.383256
     27          1           0       -2.609386   -1.291126    1.618574
     28          1           0       -1.787451   -2.327097    0.450402
     29          1           0       -0.329479   -0.525986    1.438482
     30          1           0        1.637951   -1.422914    1.017290
     31          1           0        1.655591   -2.248510   -0.553850
 ---------------------------------------------------------------------

 SCF Done:  E(RM062X) =  -617.500571931     A.U. after    1 cycles

 The electronic state is 1-A.
 Alpha  occ. eigenvalues --  -19.63301 -19.63193 -19.62702 -10.63521 -10.58909
 Alpha  occ. eigenvalues --  -10.58099 -10.58090 -10.57629 -10.53283 -10.53181
 Alpha  occ. eigenvalues --  -10.53024 -10.52958 -10.52806  -1.19877  -1.16668
 Alpha  occ. eigenvalues --   -1.13359  -0.90924  -0.89606  -0.87231  -0.84673
 Alpha  occ. eigenvalues --   -0.74742  -0.74235  -0.72908  -0.70994  -0.66733
 Alpha  occ. eigenvalues --   -0.62565  -0.60382  -0.58801  -0.56532  -0.55241
 Alpha  occ. eigenvalues --   -0.54407  -0.53260  -0.52571  -0.50714  -0.49760
 Alpha  occ. eigenvalues --   -0.48794  -0.46442  -0.46204  -0.45305  -0.44970
 Alpha  occ. eigenvalues --   -0.44069  -0.43084  -0.40784  -0.40230  -0.39370
 Alpha  occ. eigenvalues --   -0.38442  -0.37705  -0.36834  -0.35100  -0.33061
 Alpha  occ. eigenvalues --   -0.31682
 Alpha virt. eigenvalues --   -0.00056   0.00690   0.00812   0.01104   0.02181
 Alpha virt. eigenvalues --    0.02520   0.02637   0.03319   0.03558   0.04384
 Alpha virt. eigenvalues --    0.04584   0.04947   0.05604   0.05932   0.06911

 Mulliken charges:
               1
     1  C   -0.438658
     2  C    0.001282
     3  C   -0.320538
     4  C   -0.277069
     5  O   -0.342867
     6  C   -0.185177
     7  C   -0.074979
     8  C   -0.066593
     9  C   -0.186069
    10  C   -0.518662
    11  O   -0.243224
    12  O   -0.292979
    13  C   -0.486341
    14  H    0.161604
    15  H    0.171867
    16  H    0.252066
    17  H    0.185932
    18  H    0.177669
    19  H    0.220755
    20  H    0.135675
    21  H    0.146300
    22  H    0.201084
    23  H    0.226960
    24  H    0.175554
    25  H    0.175943
    26  H    0.168477
    27  H    0.193035
    28  H    0.172845
    29  H    0.287540
    30  H    0.181038
    31  H    0.197530
 Sum of Mulliken charges =  -0.00000

 Dipole moment (field-independent basis, Debye):
    X=             -1.0707    Y=              0.9244    Z=              0.6738  Tot=              1.5668
 Quadrupole moment (field-independent basis, Debye-Ang):
   XX=            -78.2120   YY=            -80.3427   ZZ=            -80.6931
   XY=              6.8451   XZ=              3.7819   YZ=             -3.8603

  Exact polarizability: 175.538   1.461 159.908   0.586  -1.264 148.669
 Approx polarizability: 146.776   0.181 142.312  -0.702   0.744 142.745

                      1                      2                      3
                      A                      A                      A
 Frequencies --     46.5176                72.1971                94.3233
 Red. masses --      3.9836                 3.4496                 3.3935
 Frc consts  --      0.0051                 0.0106                 0.0178
 IR Inten    --      1.4448                 0.2542                 2.8010

                      4                      5                      6
                      A                      A                      A
 Frequencies --    130.2878               210.8981               229.1426
 Red. masses --      3.2816                 2.9819                 3.3749
 Frc consts  --      0.0328                 0.0781                 0.1044
 IR Inten    --      1.8388                 2.7797                 2.7276

                      7                      8                      9
                      A                      A                      A
 Frequencies --    249.9249               289.8444               325.9181
 Red. masses --      2.0755                 2.3613                 2.9684
 Frc consts  --      0.0764                 0.1169                 0.1858
 IR Inten    --      6.4497                 0.3924                11.0992

                     10                     11                     12
                      A                      A                      A
 Frequencies --    370.3089               391.1563               434.4806
 Red. masses --      2.2927                 2.3427                 3.3583
 Frc consts  --      0.1852                 0.2112                 0.3735
 IR Inten    --     14.0439                13.0779                 4.0572

                     13                     14                     15
                      A                      A                      A
 Frequencies --    438.6426               461.2604               492.6778
 Red. masses --      2.7347                 3.5771                 2.6337
 Frc consts  --      0.3100                 0.4484                 0.3766
 IR Inten    --      5.7552                 1.8007                 2.1493

                     16                     17                     18
                      A                      A                      A
 Frequencies --    539.5096               576.7988               632.7384
 Red. masses --      1.9701                 2.6573                 3.8587
 Frc consts  --      0.3379                 0.5209                 0.9102
 IR Inten    --      7.7699                11.7987                 6.6074

                     19                     20                     21
                      A                      A                      A
 Frequencies --    711.4252               821.2668               837.3751
 Red. masses --      2.8986                 2.0621                 1.5826
 Frc consts  --      0.8644                 0.8195                 0.6538
 IR Inten    --      2.0922                 1.1631                 1.9206

                     22                     23                     24
                      A                      A                      A
 Frequencies --    844.9860               874.3792               888.6332
 Red. masses --      3.3318                 1.3963                 2.3865
 Frc consts  --      1.4016                 0.6290                 1.1103
 IR Inten    --      9.4324                 9.5355                14.2737

                     25                     26                     27
                      A                      A                      A
 Frequencies --    895.6748               907.1618               930.1769
 Red. masses --      2.3809                 2.3593                 1.7914
 Frc consts  --      1.1254                 1.1440                 0.9132
 IR Inten    --     17.4477                29.3103                32.4345

                     28                     29                     30
                      A                      A                      A
 Frequencies --    947.6059               980.4524               994.5484
 Red. masses --      2.4093                 1.7234                 1.7239
 Frc consts  --      1.2746                 0.9761                 1.0046
 IR Inten    --     30.4210                74.7436                 3.6968

                     31                     32                     33
                      A                      A                      A
 Frequencies --   1009.0963              1045.5285              1053.1701
 Red. masses --      2.0880                 2.1820                 1.7377
 Frc consts  --      1.2527                 1.4053                 1.1356
 IR Inten    --     47.6301                57.0795                18.7212

                     34                     35                     36
                      A                      A                      A
 Frequencies --   1064.3674              1073.8008              1123.4112
 Red. masses --      1.5259                 2.2910                 4.6850
 Frc consts  --      1.0185                 1.5564                 3.4837
 IR Inten    --     74.7630                19.1978               316.1014

                     37                     38                     39
                      A                      A                      A
 Frequencies --   1147.1871              1151.6412              1157.6112
 Red. masses --      2.7058                 2.2096                 2.8527
 Frc consts  --      2.0981                 1.7266                 2.2523
 IR Inten    --     43.2983                17.3914                86.9489

                     40                     41                     42
                      A                      A                      A
 Frequencies --   1169.3689              1191.5013              1210.0158
 Red. masses --      4.0819                 2.3645                 1.4343
 Frc consts  --      3.2886                 1.9778                 1.2373
 IR Inten    --    181.3327                40.2441                23.0113

                     43                     44                     45
                      A                      A                      A
 Frequencies --   1215.4471              1233.9974              1252.3469
 Red. masses --      1.4816                 1.6630                 1.5345
 Frc consts  --      1.2896                 1.4920                 1.4179
 IR Inten    --     23.9294                57.3376                16.2101

                     46                     47                     48
                      A                      A                      A
 Frequencies --   1287.5100              1308.8276              1320.0520
 Red. masses --      1.2116                 1.1904                 1.1510
 Frc consts  --      1.1834                 1.2015                 1.1817
 IR Inten    --     12.1736                11.7773                 9.6564

                     49                     50                     51
                      A                      A                      A
 Frequencies --   1332.3536              1344.9204              1359.0119
 Red. masses --      1.3074                 1.2745                 1.3546
 Frc consts  --      1.3674                 1.3582                 1.4740
 IR Inten    --      5.1587                12.1698                 7.1457

                     52                     53                     54
                      A                      A                      A
 Frequencies --   1364.5564              1383.1855              1385.7673
 Red. masses --      1.2566                 1.4296                 1.4693
 Frc consts  --      1.3786                 1.6115                 1.6624
 IR Inten    --      8.0395                 3.9611                 0.7860

                     55                     56                     57
                      A                      A                      A
 Frequencies --   1391.6610              1398.8969              1405.3888
 Red. masses --      1.6966                 1.3701                 1.3128
 Frc consts  --      1.9359                 1.5796                 1.5277
 IR Inten    --      6.5159                 9.9253                 6.7917

                     58                     59                     60
                      A                      A                      A
 Frequencies --   1413.9709              1416.0826              1431.3727
 Red. masses --      1.3536                 1.4172                 1.3954
 Frc consts  --      1.5944                 1.6744                 1.6844
 IR Inten    --     30.6847                13.1624                13.9717

                     61                     62                     63
                      A                      A                      A
 Frequencies --   1438.4975              1476.4518              1481.2327
 Red. masses --      1.2776                 1.1049                 1.0927
 Frc consts  --      1.5576                 1.4190                 1.4125
 IR Inten    --     11.5061                 4.6541                 7.4170

                     64                     65                     66
                      A                      A                      A
 Frequencies --   1482.9031              1491.4880              1496.1996
 Red. masses --      1.0861                 1.1193                 1.1077
 Frc consts  --      1.4072                 1.4670                 1.4611
 IR Inten    --      7.7238                 9.6398                15.5570

                     67                     68                     69
                      A                      A                      A
 Frequencies --   1500.3199              1510.9304              1513.4830
 Red. masses --      1.0883                 1.0931                 1.1029
 Frc consts  --      1.4434                 1.4702                 1.4884
 IR Inten    --      0.1716                 3.5239                10.2441

                     70                     71                     72
                      A                      A                      A
 Frequencies --   3019.2045              3021.5236              3057.5887
 Red. masses --      1.0701                 1.0694                 1.0684
 Frc consts  --      5.7472                 5.7525                 5.8850
 IR Inten    --     46.0201                81.7644                39.9681

                     73                     74                     75
                      A                      A                      A
 Frequencies --   3064.0579              3067.8395              3070.3248
 Red. masses --      1.0621                 1.0653                 1.0673
 Frc consts  --      5.8748                 5.9074                 5.9282
 IR Inten    --     52.4126                22.9288                 7.1149

                     76                     77                     78
                      A                      A                      A
 Frequencies --   3072.8919              3076.6019              3079.7803
 Red. masses --      1.0636                 1.0622                 1.0762
 Frc consts  --      5.9175                 5.9239                 6.0145
 IR Inten    --     27.4698                34.9021                60.9831

                     79                     80                     81
                      A                      A                      A
 Frequencies --   3104.5148              3113.2878              3117.3628
 Red. masses --      1.0856                 1.0978                 1.0997
 Frc consts  --      6.1648                 6.2690                 6.2966
 IR Inten    --     54.0794                34.4104                40.3389

                     82                     83                     84
                      A                      A                      A
 Frequencies --   3119.2231              3125.1840              3128.8724
 Red. masses --      1.1020                 1.1033                 1.1037
 Frc consts  --      6.3175                 6.3487                 6.3660
 IR Inten    --     61.4162                58.1111                44.2754

                     85                     86                     87
                      A                      A                      A
 Frequencies --   3131.8067              3133.1268              3135.4354
 Red. masses --      1.0953                 1.0999                 1.0952
 Frc consts  --      6.3294                 6.3612                 6.3435
 IR Inten    --     46.5104                48.2014                42.7680

 - Thermochemistry -
 -------------------
 Temperature   298.150 Kelvin.  Pressure   1.00000 Atm.
 Atom     1 has atomic number  6 and mass  12.00000

 Molecular mass:   186.12559 amu.
 Principal axes and moments of inertia in atomic units:
                           1         2         3
     Eigenvalues --   901.278264190.997704691.20262
           X            0.99990   0.01278   0.00574
           Y           -0.01261   0.99948  -0.02976
           Z           -0.00612   0.02968   0.99954
 This molecule is an asymmetric top.
 Rotational symmetry number  1.
 Warning -- assumption of classical behavior for rotation
           may cause significant error
 Rotational temperatures (Kelvin)      0.09610     0.02067     0.01846
 Rotational constants (GHZ):           2.00242     0.43062     0.38471
 Zero-point vibrational energy     737452.9 (Joules/Mol)
                                  176.25547 (Kcal/Mol)
 Warning -- explicit consideration of  17 degrees of freedom as
           vibrations may cause significant error
 Vibrational temperatures:     66.93   103.88   135.71   187.46   303.44
          (Kelvin)            329.69   359.59   417.02   468.92   532.79
                              562.79   625.12   631.11   663.65   708.85
                              776.23   829.88   910.37  1023.58  1181.62
                             1204.80  1215.75  1258.04  1278.54  1288.68
                             1305.20  1338.32  1363.39  1410.65  1430.93
                             1451.86  1504.28  1515.28  1531.39  1544.96
                             1616.34  1650.55  1656.95  1665.54  1682.46
                             1714.30  1740.94  1748.76  1775.45  1801.85
                             1852.44  1883.11  1899.26  1916.96  1935.04
                             1955.32  1963.29  1990.10  1993.81  2002.29
                             2012.70  2022.04  2034.39  2037.43  2059.43
                             2069.68  2124.28  2131.16  2133.57  2145.92
                             2152.70  2158.63  2173.89  2177.56  4343.96
                             4347.30  4399.19  4408.50  4413.94  4417.51
                             4421.21  4426.54  4431.12  4466.70  4479.33
                             4485.19  4487.87  4496.44  4501.75  4505.97
                             4507.87  4511.19

 Zero-point correction=                           0.280881 (Hartree/Particle)
 Thermal correction to Energy=                    0.292559
 Thermal correction to Enthalpy=                  0.293503
 Thermal correction to Gibbs Free Energy=         0.242884
 Sum of electronic and zero-point Energies=           -617.219691
 Sum of electronic and thermal Energies=              -617.208013
 Sum of electronic and thermal Enthalpies=            -617.207069
 Sum of electronic and thermal Free Energies=         -617.257688

                     E (Thermal)             CV                S
                      KCal/Mol        Cal/Mol-Kelvin    Cal/Mol-Kelvin
 Total                  183.583             46.700            106.537
 Electronic               0.000              0.000              0.000
 Translational            0.889              2.981             41.570
 Rotational               0.889              2.981             31.250
 Vibrational            181.806             40.739             33.717
 Vibration     1          0.595              1.979              4.960
 Vibration     2          0.598              1.967              4.093
 Vibration     3          0.603              1.953              3.568
 Vibration     4          0.612              1.923              2.942
 Vibration     5          0.643              1.824              2.036
 Vibration     6          0.652              1.797              1.886
 Vibration     7          0.663              1.763              1.731
 Vibration     8          0.686              1.693              1.475
 Vibration     9          0.710              1.624              1.280
 Vibration    10          0.742              1.533              1.079
 Vibration    11          0.759              1.489              0.996
 Vibration    12          0.795              1.395              0.844
 Vibration    13          0.799              1.386              0.831
 Vibration    14          0.819              1.336              0.762
 Vibration    15          0.848              1.266              0.677
 Vibration    16          0.895              1.163              0.566
 Vibration    17          0.933              1.081              0.491

 Optimization completed.
    -- Stationary point found.
 Normal termination of Gaussian 16 at Sun Nov  4 22:52:11 2018.
