 Gaussian 16, Revision A.03,
 Gaussian 16:  ES64L-G16RevA.03 25-Dec-2016

 ----------------------------------------------------------------------
 #M062X/6-311++G(2d,2p) opt=ModRedundant freq=noraman SCRF=(Solvent=Wat
 er)
 ----------------------------------------------------------------------

 ----------------------------
 D_1a_4e_D_PHI.inp_extract_11
 ----------------------------
 Symbolic Z-matrix:
 Charge =  0 Multiplicity = 1

 SCF Done:  E(RM062X) =  -617.479301149     A.U. after   12 cycles
 SCF Done:  E(RM062X) =  -617.474537758     A.U. after   12 cycles
 SCF Done:  E(RM062X) =  -617.479177364     A.U. after   11 cycles
 SCF Done:  E(RM062X) =  -617.480770944     A.U. after    9 cycles
 SCF Done:  E(RM062X) =  -617.481328496     A.U. after   10 cycles
 SCF Done:  E(RM062X) =  -617.481393451     A.U. after   11 cycles
 SCF Done:  E(RM062X) =  -617.481449049     A.U. after   10 cycles
 SCF Done:  E(RM062X) =  -617.481490912     A.U. after    9 cycles
 SCF Done:  E(RM062X) =  -617.481491900     A.U. after    8 cycles
 SCF Done:  E(RM062X) =  -617.481492006     A.U. after    7 cycles
 Optimization completed.
    -- Stationary point found.
 Normal termination of Gaussian 16 at Sun Nov  4 22:17:27 2018.

 ----------------------------------------------------------------------
 #N Geom=AllCheck Guess=TCheck SCRF=Check GenChk RM062X/6-311++G(2d,2p)
  Freq
 ----------------------------------------------------------------------

 Structure from the checkpoint file:  "D_1a_4e_D_PHI.inp_extract_11.chk"
 ----------------------------
 D_1a_4e_D_PHI.inp_extract_11
 ----------------------------
 Charge =  0 Multiplicity = 1

                         Standard orientation:
 ---------------------------------------------------------------------
 Center     Atomic      Atomic             Coordinates (Angstroms)
 Number     Number       Type             X           Y           Z
 ---------------------------------------------------------------------
      1          6           0        2.540478    1.094628    1.049628
      2          6           0        1.551263   -1.046434   -0.664613
      3          6           0       -0.975061   -0.496890   -0.821299
      4          6           0        1.538902    0.101496    1.635688
      5          8           0       -2.522502    1.329397   -0.559091
      6          6           0       -3.074936    0.755147    0.619443
      7          6           0        2.331961    1.216377   -0.449470
      8          6           0       -1.520640   -1.193595    0.421149
      9          6           0       -1.147049    1.017263   -0.699116
     10          6           0       -2.980674   -0.762365    0.593508
     11          8           0        2.443704   -0.046397   -1.098698
     12          8           0        0.297780   -0.904407   -1.314191
     13          6           0        1.600194   -1.209118    0.852921
     14          1           0        3.558539    0.745281    1.235807
     15          1           0        2.436703    2.076328    1.512172
     16          1           0       -1.633303   -0.786708   -1.644771
     17          1           0        1.761540   -0.094938    2.684178
     18          1           0        0.539255    0.533536    1.607540
     19          1           0       -4.109246    1.088767    0.664498
     20          1           0       -2.544831    1.149510    1.495336
     21          1           0        1.359953    1.661768   -0.672169
     22          1           0        3.094429    1.844964   -0.904266
     23          1           0       -0.971179   -0.901335    1.314685
     24          1           0       -1.439546   -2.275371    0.312085
     25          1           0       -3.584825   -1.142876   -0.232395
     26          1           0       -3.390958   -1.167248    1.518675
     27          1           0        2.573195   -1.666250    1.046560
     28          1           0        0.851650   -1.928190    1.174615
     29          1           0        1.953553   -1.953471   -1.112931
     30          1           0       -0.596389    1.421303    0.155703
     31          1           0       -0.797020    1.507137   -1.606520
 ---------------------------------------------------------------------

 SCF Done:  E(RM062X) =  -617.481492006     A.U. after    1 cycles

 The electronic state is 1-A.
 Alpha  occ. eigenvalues --  -19.63291 -19.63030 -19.62999 -10.64088 -10.59425
 Alpha  occ. eigenvalues --  -10.58277 -10.58221 -10.57983 -10.53628 -10.53538
 Alpha  occ. eigenvalues --  -10.53485 -10.53456 -10.53135  -1.19242  -1.16783
 Alpha  occ. eigenvalues --   -1.13240  -0.90868  -0.90480  -0.87827  -0.84991
 Alpha  occ. eigenvalues --   -0.75565  -0.74423  -0.73703  -0.70592  -0.67650
 Alpha  occ. eigenvalues --   -0.62730  -0.59902  -0.58671  -0.56272  -0.55757
 Alpha  occ. eigenvalues --   -0.55152  -0.53979  -0.52696  -0.50681  -0.50063
 Alpha  occ. eigenvalues --   -0.49514  -0.47832  -0.46404  -0.45838  -0.45054
 Alpha  occ. eigenvalues --   -0.43968  -0.42756  -0.40584  -0.40147  -0.39221
 Alpha  occ. eigenvalues --   -0.38106  -0.37413  -0.37164  -0.35505  -0.33392
 Alpha  occ. eigenvalues --   -0.31737
 Alpha virt. eigenvalues --   -0.00199   0.00720   0.00771   0.01021   0.02379
 Alpha virt. eigenvalues --    0.02654   0.02706   0.03206   0.03368   0.05011
 Alpha virt. eigenvalues --    0.05103   0.05345   0.05790   0.06100   0.07239

 Mulliken charges:
               1
     1  C   -0.308866
     2  C    0.097328
     3  C   -0.529002
     4  C   -0.373631
     5  O   -0.329940
     6  C   -0.184078
     7  C   -0.264190
     8  C   -0.110164
     9  C   -0.271547
    10  C   -0.390309
    11  O   -0.270906
    12  O   -0.339942
    13  C   -0.426290
    14  H    0.175830
    15  H    0.179801
    16  H    0.257259
    17  H    0.195225
    18  H    0.186655
    19  H    0.219359
    20  H    0.134496
    21  H    0.122471
    22  H    0.227355
    23  H    0.221562
    24  H    0.212072
    25  H    0.180356
    26  H    0.173993
    27  H    0.247393
    28  H    0.206334
    29  H    0.247983
    30  H    0.276442
    31  H    0.236952
 Sum of Mulliken charges =  -0.00000

 Dipole moment (field-independent basis, Debye):
    X=             -0.5215    Y=             -0.5866    Z=              4.7392  Tot=              4.8038
 Quadrupole moment (field-independent basis, Debye-Ang):
   XX=            -81.3523   YY=            -78.8848   ZZ=            -84.1009
   XY=              5.9680   XZ=              1.1750   YZ=             -0.5283

  Exact polarizability: 173.857   1.996 157.600  -2.132  -0.382 153.486
 Approx polarizability: 150.364   0.114 142.288  -0.667   0.262 141.767

                      1                      2                      3
                      A                      A                      A
 Frequencies --     35.6603                89.8034               111.3572
 Red. masses --      5.8018                 3.6824                 3.2556
 Frc consts  --      0.0043                 0.0175                 0.0238
 IR Inten    --      3.8126                 1.3893                 0.1096

                      4                      5                      6
                      A                      A                      A
 Frequencies --    145.4726               202.5980               235.1643
 Red. masses --      3.0841                 2.6880                 3.3753
 Frc consts  --      0.0385                 0.0650                 0.1100
 IR Inten    --      1.3561                 1.3228                 0.3273

                      7                      8                      9
                      A                      A                      A
 Frequencies --    276.4476               296.8030               315.7742
 Red. masses --      2.0772                 3.5492                 2.0220
 Frc consts  --      0.0935                 0.1842                 0.1188
 IR Inten    --      9.2814                12.5574                 1.3327

                     10                     11                     12
                      A                      A                      A
 Frequencies --    360.5015               373.0506               432.3468
 Red. masses --      3.0136                 2.5711                 3.1511
 Frc consts  --      0.2308                 0.2108                 0.3470
 IR Inten    --      5.3260                14.9354                 2.5149

                     13                     14                     15
                      A                      A                      A
 Frequencies --    437.0857               472.0159               473.4044
 Red. masses --      2.6437                 2.8118                 3.6131
 Frc consts  --      0.2976                 0.3691                 0.4771
 IR Inten    --      9.7208                 2.0215                 1.2731

                     16                     17                     18
                      A                      A                      A
 Frequencies --    541.6530               548.7977               619.3096
 Red. masses --      2.3590                 1.9160                 3.7585
 Frc consts  --      0.4078                 0.3400                 0.8493
 IR Inten    --      0.6598                 6.6803                18.3287

                     19                     20                     21
                      A                      A                      A
 Frequencies --    699.0673               796.5399               826.4349
 Red. masses --      2.8214                 2.0846                 2.1021
 Frc consts  --      0.8124                 0.7793                 0.8459
 IR Inten    --      8.3631                 9.5526                 0.8828

                     22                     23                     24
                      A                      A                      A
 Frequencies --    834.1148               876.7294               882.6990
 Red. masses --      2.4487                 2.2291                 1.5149
 Frc consts  --      1.0038                 1.0095                 0.6955
 IR Inten    --     16.2785                16.0178                 9.4152

                     25                     26                     27
                      A                      A                      A
 Frequencies --    890.0094               897.5826               929.3095
 Red. masses --      2.3695                 2.3994                 1.8520
 Frc consts  --      1.1058                 1.1389                 0.9424
 IR Inten    --     16.3713                57.5114                52.6354

                     28                     29                     30
                      A                      A                      A
 Frequencies --    947.9280               950.2244               993.7405
 Red. masses --      2.4228                 1.9094                 1.5638
 Frc consts  --      1.2827                 1.0158                 0.9098
 IR Inten    --     43.7969                32.8240                 7.7743

                     31                     32                     33
                      A                      A                      A
 Frequencies --   1014.9637              1040.7133              1048.9994
 Red. masses --      2.2048                 2.2820                 1.7932
 Frc consts  --      1.3382                 1.4562                 1.1626
 IR Inten    --     28.7251                85.9760                54.4522

                     34                     35                     36
                      A                      A                      A
 Frequencies --   1065.6149              1075.2237              1107.8492
 Red. masses --      1.6399                 2.0360                 2.5625
 Frc consts  --      1.0972                 1.3868                 1.8530
 IR Inten    --     73.0873                40.1273               174.4364

                     37                     38                     39
                      A                      A                      A
 Frequencies --   1142.7221              1151.1685              1158.3855
 Red. masses --      3.0519                 2.4376                 3.3291
 Frc consts  --      2.3481                 1.9032                 2.6320
 IR Inten    --     52.1685               107.6538                96.3349

                     40                     41                     42
                      A                      A                      A
 Frequencies --   1186.9763              1196.5667              1212.0163
 Red. masses --      2.7839                 2.5824                 1.4099
 Frc consts  --      2.3109                 2.1784                 1.2203
 IR Inten    --     74.7398               142.8651                 4.6628

                     43                     44                     45
                      A                      A                      A
 Frequencies --   1219.2045              1240.3015              1253.1829
 Red. masses --      1.4214                 1.7396                 1.6507
 Frc consts  --      1.2448                 1.5767                 1.5274
 IR Inten    --     65.8782                58.9484                16.8537

                     46                     47                     48
                      A                      A                      A
 Frequencies --   1299.5158              1307.2867              1318.9182
 Red. masses --      1.2165                 1.2069                 1.1792
 Frc consts  --      1.2104                 1.2152                 1.2086
 IR Inten    --     25.2809                14.9171                10.5417

                     49                     50                     51
                      A                      A                      A
 Frequencies --   1333.9912              1344.1325              1365.0967
 Red. masses --      1.2680                 1.2768                 1.3305
 Frc consts  --      1.3294                 1.3591                 1.4608
 IR Inten    --     10.4154                10.1622                 3.9868

                     52                     53                     54
                      A                      A                      A
 Frequencies --   1379.1139              1383.0568              1392.0447
 Red. masses --      1.3419                 1.3883                 1.4707
 Frc consts  --      1.5038                 1.5647                 1.6791
 IR Inten    --     34.5755                 4.8148                 2.7314

                     55                     56                     57
                      A                      A                      A
 Frequencies --   1396.4202              1402.8592              1407.2166
 Red. masses --      1.6063                 1.3440                 1.3645
 Frc consts  --      1.8454                 1.5584                 1.5920
 IR Inten    --     13.9181                 8.8593                 4.8263

                     58                     59                     60
                      A                      A                      A
 Frequencies --   1420.1859              1430.9411              1440.9932
 Red. masses --      1.3863                 1.3392                 1.2622
 Frc consts  --      1.6474                 1.6156                 1.5442
 IR Inten    --      6.0849                17.6155                 9.4084

                     61                     62                     63
                      A                      A                      A
 Frequencies --   1451.0080              1479.4771              1483.3703
 Red. masses --      1.1701                 1.0982                 1.0931
 Frc consts  --      1.4515                 1.4163                 1.4171
 IR Inten    --      0.3530                 2.8690                10.6453

                     64                     65                     66
                      A                      A                      A
 Frequencies --   1488.6888              1499.1060              1505.2967
 Red. masses --      1.0973                 1.0949                 1.0939
 Frc consts  --      1.4328                 1.4498                 1.4604
 IR Inten    --     17.1387                13.2284                 1.0889

                     67                     68                     69
                      A                      A                      A
 Frequencies --   1511.2732              1518.4709              1523.8169
 Red. masses --      1.0945                 1.0981                 1.0931
 Frc consts  --      1.4728                 1.4918                 1.4955
 IR Inten    --      3.2283                11.5894                 4.5360

                     70                     71                     72
                      A                      A                      A
 Frequencies --   3017.0703              3047.5543              3059.2135
 Red. masses --      1.0708                 1.0696                 1.0782
 Frc consts  --      5.7431                 5.8527                 5.9450
 IR Inten    --     70.5329                28.1459                85.6831

                     73                     74                     75
                      A                      A                      A
 Frequencies --   3066.6358              3071.8304              3074.4148
 Red. masses --      1.0642                 1.0626                 1.0720
 Frc consts  --      5.8963                 5.9074                 5.9698
 IR Inten    --     40.0557                36.2968                 7.6388

                     76                     77                     78
                      A                      A                      A
 Frequencies --   3084.6355              3087.6994              3093.1759
 Red. masses --      1.0613                 1.0619                 1.0636
 Frc consts  --      5.9496                 5.9650                 5.9956
 IR Inten    --     55.1059                34.6490                33.1426

                     79                     80                     81
                      A                      A                      A
 Frequencies --   3104.7545              3117.7015              3120.2600
 Red. masses --      1.0867                 1.0987                 1.1015
 Frc consts  --      6.1719                 6.2923                 6.3187
 IR Inten    --     71.6031                28.8389                36.2291

                     82                     83                     84
                      A                      A                      A
 Frequencies --   3128.0346              3133.8816              3135.5278
 Red. masses --      1.1000                 1.1003                 1.0940
 Frc consts  --      6.3416                 6.3667                 6.3371
 IR Inten    --     49.5658                11.7402                44.5572

                     85                     86                     87
                      A                      A                      A
 Frequencies --   3137.6480              3142.9998              3155.9946
 Red. masses --      1.1038                 1.1000                 1.0930
 Frc consts  --      6.4023                 6.4021                 6.4141
 IR Inten    --     74.0025                45.8388                19.0549

 - Thermochemistry -
 -------------------
 Temperature   298.150 Kelvin.  Pressure   1.00000 Atm.
 Atom     1 has atomic number  6 and mass  12.00000

 Molecular mass:   186.12559 amu.
 Principal axes and moments of inertia in atomic units:
                           1         2         3
     Eigenvalues --  1277.374743476.254573546.05342
           X            0.99986   0.01657   0.00282
           Y           -0.01625   0.99579  -0.09026
           Z           -0.00431   0.09020   0.99591
 This molecule is an asymmetric top.
 Rotational symmetry number  1.
 Warning -- assumption of classical behavior for rotation
           may cause significant error
 Rotational temperatures (Kelvin)      0.06781     0.02492     0.02443
 Rotational constants (GHZ):           1.41285     0.51916     0.50894
 Zero-point vibrational energy     738495.6 (Joules/Mol)
                                  176.50469 (Kcal/Mol)
 Warning -- explicit consideration of  18 degrees of freedom as
           vibrations may cause significant error
 Vibrational temperatures:     51.31   129.21   160.22   209.30   291.49
          (Kelvin)            338.35   397.75   427.03   454.33   518.68
                              536.74   622.05   628.87   679.13   681.12
                              779.32   789.60   891.05  1005.80  1146.04
                             1189.06  1200.11  1261.42  1270.01  1280.53
                             1291.42  1337.07  1363.86  1367.16  1429.77
                             1460.31  1497.35  1509.28  1533.18  1547.01
                             1593.95  1644.12  1656.27  1666.66  1707.79
                             1721.59  1743.82  1754.16  1784.52  1803.05
                             1869.71  1880.89  1897.63  1919.32  1933.91
                             1964.07  1984.24  1989.91  2002.84  2009.14
                             2018.40  2024.67  2043.33  2058.81  2073.27
                             2087.68  2128.64  2134.24  2141.89  2156.88
                             2165.79  2174.38  2184.74  2192.43  4340.89
                             4384.75  4401.53  4412.20  4419.68  4423.40
                             4438.10  4442.51  4450.39  4467.05  4485.68
                             4489.36  4500.54  4508.96  4511.33  4514.38
                             4522.08  4540.77

 Zero-point correction=                           0.281278 (Hartree/Particle)
 Thermal correction to Energy=                    0.292939
 Thermal correction to Enthalpy=                  0.293883
 Thermal correction to Gibbs Free Energy=         0.243459
 Sum of electronic and zero-point Energies=           -617.200214
 Sum of electronic and thermal Energies=              -617.188553
 Sum of electronic and thermal Enthalpies=            -617.187609
 Sum of electronic and thermal Free Energies=         -617.238033

                     E (Thermal)             CV                S
                      KCal/Mol        Cal/Mol-Kelvin    Cal/Mol-Kelvin
 Total                  183.822             46.903            106.126
 Electronic               0.000              0.000              0.000
 Translational            0.889              2.981             41.570
 Rotational               0.889              2.981             31.133
 Vibrational            182.044             40.941             33.423
 Vibration     1          0.594              1.982              5.487
 Vibration     2          0.602              1.956              3.664
 Vibration     3          0.607              1.940              3.245
 Vibration     4          0.617              1.908              2.731
 Vibration     5          0.639              1.836              2.109
 Vibration     6          0.655              1.787              1.839
 Vibration     7          0.678              1.717              1.556
 Vibration     8          0.690              1.680              1.435
 Vibration     9          0.703              1.644              1.332
 Vibration    10          0.735              1.554              1.120
 Vibration    11          0.744              1.527              1.067
 Vibration    12          0.793              1.400              0.851
 Vibration    13          0.797              1.389              0.836
 Vibration    14          0.829              1.312              0.732
 Vibration    15          0.830              1.309              0.728
 Vibration    16          0.897              1.158              0.562
 Vibration    17          0.904              1.142              0.547
 Vibration    18          0.979              0.991              0.418

 Optimization completed.
    -- Stationary point found.
 Normal termination of Gaussian 16 at Sun Nov  4 23:16:00 2018.
