 Gaussian 16, Revision A.03,
 Gaussian 16:  ES64L-G16RevA.03 25-Dec-2016

 ----------------------------------------------------------------------
 #M062X/6-311++G(2d,2p) opt=ModRedundant freq=noraman SCRF=(Solvent=Wat
 er)
 ----------------------------------------------------------------------

 ---------------------------
 D_1a_4e_D_PHI.inp_extract_2
 ---------------------------
 Symbolic Z-matrix:
 Charge =  0 Multiplicity = 1

 SCF Done:  E(RM062X) =  -617.496507059     A.U. after   12 cycles
 SCF Done:  E(RM062X) =  -617.498087913     A.U. after   11 cycles
 SCF Done:  E(RM062X) =  -617.498230251     A.U. after   11 cycles
 SCF Done:  E(RM062X) =  -617.498284631     A.U. after    9 cycles
 SCF Done:  E(RM062X) =  -617.498286947     A.U. after    9 cycles
 SCF Done:  E(RM062X) =  -617.498288783     A.U. after    8 cycles
 Optimization completed.
    -- Stationary point found.
 Normal termination of Gaussian 16 at Sun Nov  4 21:56:38 2018.

 ----------------------------------------------------------------------
 #N Geom=AllCheck Guess=TCheck SCRF=Check GenChk RM062X/6-311++G(2d,2p)
  Freq
 ----------------------------------------------------------------------

 Structure from the checkpoint file:  "D_1a_4e_D_PHI.inp_extract_2.chk"
 ---------------------------
 D_1a_4e_D_PHI.inp_extract_2
 ---------------------------
 Charge =  0 Multiplicity = 1

                         Standard orientation:
 ---------------------------------------------------------------------
 Center     Atomic      Atomic             Coordinates (Angstroms)
 Number     Number       Type             X           Y           Z
 ---------------------------------------------------------------------
      1          6           0       -3.763322    0.116746   -0.146586
      2          6           0       -0.975881   -0.017818    0.557833
      3          6           0        1.098090    0.036009   -0.694648
      4          6           0       -3.005468   -1.195662   -0.337615
      5          8           0        3.109206   -1.224022   -0.212965
      6          6           0        3.683867   -0.128990    0.490208
      7          6           0       -2.795073    1.283710   -0.240209
      8          6           0        1.679406    1.274242   -0.023030
      9          6           0        1.698463   -1.236748   -0.100150
     10          6           0        3.206895    1.199084   -0.074939
     11          8           0       -1.732374    1.159994    0.706848
     12          8           0       -0.323179   -0.010693   -0.695679
     13          6           0       -1.852179   -1.259304    0.661548
     14          1           0       -4.242564    0.127572    0.835364
     15          1           0       -4.544031    0.235989   -0.898427
     16          1           0        1.369888    0.059025   -1.751804
     17          1           0       -3.667166   -2.050771   -0.204920
     18          1           0       -2.610302   -1.243538   -1.354491
     19          1           0        4.761817   -0.238102    0.394300
     20          1           0        3.419872   -0.204100    1.552330
     21          1           0       -2.375331    1.347371   -1.247474
     22          1           0       -3.282040    2.228536   -0.009920
     23          1           0        1.359446    1.321545    1.020743
     24          1           0        1.308936    2.170157   -0.521142
     25          1           0        3.549617    1.285695   -1.108122
     26          1           0        3.651968    2.017921    0.490306
     27          1           0       -2.246813   -1.305947    1.678710
     28          1           0       -1.230014   -2.140139    0.502319
     29          1           0       -0.253302    0.008769    1.370933
     30          1           0        1.414023   -1.341185    0.954791
     31          1           0        1.337983   -2.108640   -0.643603
 ---------------------------------------------------------------------

 SCF Done:  E(RM062X) =  -617.498288783     A.U. after    1 cycles

 The electronic state is 1-A.
 Alpha  occ. eigenvalues --  -19.63311 -19.63199 -19.62935 -10.63592 -10.59109
 Alpha  occ. eigenvalues --  -10.58304 -10.58179 -10.57714 -10.53422 -10.53378
 Alpha  occ. eigenvalues --  -10.53047 -10.52987 -10.52845  -1.19879  -1.16802
 Alpha  occ. eigenvalues --   -1.13490  -0.90801  -0.89804  -0.87217  -0.84928
 Alpha  occ. eigenvalues --   -0.74763  -0.74486  -0.72973  -0.71266  -0.66786
 Alpha  occ. eigenvalues --   -0.62739  -0.60536  -0.58705  -0.56773  -0.55362
 Alpha  occ. eigenvalues --   -0.54361  -0.53432  -0.52577  -0.50952  -0.49923
 Alpha  occ. eigenvalues --   -0.48877  -0.46518  -0.46174  -0.45574  -0.44951
 Alpha  occ. eigenvalues --   -0.43959  -0.43486  -0.41088  -0.40385  -0.39353
 Alpha  occ. eigenvalues --   -0.38425  -0.37957  -0.37425  -0.34473  -0.33201
 Alpha  occ. eigenvalues --   -0.31772
 Alpha virt. eigenvalues --   -0.00064   0.00661   0.00786   0.01150   0.02175
 Alpha virt. eigenvalues --    0.02479   0.02623   0.03382   0.03604   0.04305
 Alpha virt. eigenvalues --    0.04615   0.04830   0.05477   0.06038   0.07031

 Mulliken charges:
               1
     1  C   -0.421259
     2  C   -0.141427
     3  C   -0.401422
     4  C   -0.294298
     5  O   -0.346031
     6  C   -0.146486
     7  C   -0.127950
     8  C   -0.038650
     9  C   -0.245303
    10  C   -0.391414
    11  O   -0.281255
    12  O   -0.298401
    13  C   -0.336597
    14  H    0.163583
    15  H    0.169868
    16  H    0.253107
    17  H    0.179854
    18  H    0.186539
    19  H    0.216910
    20  H    0.129963
    21  H    0.164486
    22  H    0.208902
    23  H    0.202950
    24  H    0.174568
    25  H    0.176017
    26  H    0.169066
    27  H    0.191770
    28  H    0.160358
    29  H    0.327242
    30  H    0.192301
    31  H    0.203008
 Sum of Mulliken charges =  -0.00000

 Dipole moment (field-independent basis, Debye):
    X=             -0.3960    Y=              0.1905    Z=              0.8548  Tot=              0.9611
 Quadrupole moment (field-independent basis, Debye-Ang):
   XX=            -75.3326   YY=            -82.3808   ZZ=            -80.4562
   XY=              8.1553   XZ=              4.3424   YZ=             -3.1984

  Exact polarizability: 178.080   0.804 157.659   0.996  -0.888 148.506
 Approx polarizability: 148.720  -0.430 140.512  -0.360   0.928 142.529

 ******    1 imaginary frequencies (negative Signs) ******

                      1                      2                      3
                      A                      A                      A
 Frequencies --    -25.5401                80.2570                86.6859
 Red. masses --      4.5073                 3.3158                 3.2411
 Frc consts  --      0.0017                 0.0126                 0.0143
 IR Inten    --      1.7962                 0.7842                 2.5096

                      4                      5                      6
                      A                      A                      A
 Frequencies --    127.2992               210.6611               221.4696
 Red. masses --      3.3005                 2.6320                 3.7632
 Frc consts  --      0.0315                 0.0688                 0.1088
 IR Inten    --      1.7222                 4.2433                 0.2956

                      7                      8                      9
                      A                      A                      A
 Frequencies --    241.8884               303.1486               309.5830
 Red. masses --      1.9945                 2.0643                 3.4170
 Frc consts  --      0.0688                 0.1118                 0.1930
 IR Inten    --      5.2656                 0.1945                 6.9433

                     10                     11                     12
                      A                      A                      A
 Frequencies --    371.5204               407.6620               433.0388
 Red. masses --      2.3259                 2.3979                 3.1599
 Frc consts  --      0.1891                 0.2348                 0.3491
 IR Inten    --     16.1565                 9.4708                10.4038

                     13                     14                     15
                      A                      A                      A
 Frequencies --    437.7035               458.1325               506.7215
 Red. masses --      3.2246                 3.4545                 2.4103
 Frc consts  --      0.3640                 0.4272                 0.3646
 IR Inten    --      2.1594                 0.2483                 1.8332

                     16                     17                     18
                      A                      A                      A
 Frequencies --    537.8244               550.6057               607.5302
 Red. masses --      1.9453                 4.6740                 2.5058
 Frc consts  --      0.3315                 0.8349                 0.5449
 IR Inten    --      4.3398                20.9730                 1.0682

                     19                     20                     21
                      A                      A                      A
 Frequencies --    712.5907               820.8812               835.6735
 Red. masses --      3.0165                 2.0961                 1.5776
 Frc consts  --      0.9025                 0.8322                 0.6491
 IR Inten    --      4.5629                 1.0798                 2.0302

                     22                     23                     24
                      A                      A                      A
 Frequencies --    848.4552               872.6254               888.1562
 Red. masses --      3.2287                 1.4082                 2.4345
 Frc consts  --      1.3694                 0.6318                 1.1315
 IR Inten    --      5.5445                 9.7874                 9.9811

                     25                     26                     27
                      A                      A                      A
 Frequencies --    899.4575               904.0184               932.2216
 Red. masses --      2.1290                 2.5693                 1.8273
 Frc consts  --      1.0148                 1.2371                 0.9356
 IR Inten    --     22.4261                44.2693                29.6559

                     28                     29                     30
                      A                      A                      A
 Frequencies --    944.8862               977.1209               995.1900
 Red. masses --      2.3995                 1.7920                 1.6411
 Frc consts  --      1.2622                 1.0081                 0.9576
 IR Inten    --     35.1104                86.3268                 3.8526

                     31                     32                     33
                      A                      A                      A
 Frequencies --   1007.2682              1046.3550              1052.6535
 Red. masses --      2.1861                 2.1097                 1.7371
 Frc consts  --      1.3068                 1.3609                 1.1341
 IR Inten    --     35.9316                49.9263                21.5823

                     34                     35                     36
                      A                      A                      A
 Frequencies --   1068.7072              1075.4118              1128.6671
 Red. masses --      1.5029                 2.3963                 4.6534
 Frc consts  --      1.0114                 1.6328                 3.4926
 IR Inten    --     83.6322                11.9854               413.2689

                     37                     38                     39
                      A                      A                      A
 Frequencies --   1147.9811              1149.1162              1157.6250
 Red. masses --      2.2158                 2.5303                 3.0859
 Frc consts  --      1.7205                 1.9686                 2.4365
 IR Inten    --     38.1329                29.0115                80.1181

                     40                     41                     42
                      A                      A                      A
 Frequencies --   1169.4239              1191.3487              1210.6832
 Red. masses --      3.9498                 2.4396                 1.4093
 Frc consts  --      3.1825                 2.0401                 1.2170
 IR Inten    --    121.8708                35.3510                16.2640

                     43                     44                     45
                      A                      A                      A
 Frequencies --   1213.4733              1238.3517              1251.4666
 Red. masses --      1.4649                 1.7494                 1.5545
 Frc consts  --      1.2709                 1.5807                 1.4344
 IR Inten    --     20.6927                70.3190                19.2623

                     46                     47                     48
                      A                      A                      A
 Frequencies --   1287.2188              1308.3315              1319.1956
 Red. masses --      1.2122                 1.1861                 1.1543
 Frc consts  --      1.1834                 1.1962                 1.1835
 IR Inten    --     11.1006                17.9594                 9.4529

                     49                     50                     51
                      A                      A                      A
 Frequencies --   1333.4723              1343.8153              1361.4419
 Red. masses --      1.3295                 1.2768                 1.3461
 Frc consts  --      1.3929                 1.3584                 1.4700
 IR Inten    --      5.1867                 7.9177                 7.5125

                     52                     53                     54
                      A                      A                      A
 Frequencies --   1365.0326              1382.2820              1386.5987
 Red. masses --      1.2632                 1.4279                 1.4922
 Frc consts  --      1.3868                 1.6074                 1.6904
 IR Inten    --      7.7056                 1.1123                 6.1608

                     55                     56                     57
                      A                      A                      A
 Frequencies --   1392.2875              1399.5874              1406.8856
 Red. masses --      1.6926                 1.3826                 1.3050
 Frc consts  --      1.9332                 1.5957                 1.5218
 IR Inten    --     11.7677                12.1635                 1.5389

                     58                     59                     60
                      A                      A                      A
 Frequencies --   1415.3842              1417.0741              1432.8764
 Red. masses --      1.3959                 1.3014                 1.4100
 Frc consts  --      1.6476                 1.5398                 1.7057
 IR Inten    --      6.2784                35.0077                 8.0517

                     61                     62                     63
                      A                      A                      A
 Frequencies --   1445.4177              1475.9637              1480.9900
 Red. masses --      1.2403                 1.1041                 1.0925
 Frc consts  --      1.5267                 1.4172                 1.4118
 IR Inten    --     14.1077                 5.4913                 6.8033

                     64                     65                     66
                      A                      A                      A
 Frequencies --   1483.1580              1494.3692              1495.2474
 Red. masses --      1.0865                 1.1076                 1.1164
 Frc consts  --      1.4082                 1.4573                 1.4706
 IR Inten    --      8.0184                 2.0805                23.1135

                     67                     68                     69
                      A                      A                      A
 Frequencies --   1502.0266              1510.1048              1515.6730
 Red. masses --      1.0887                 1.0934                 1.1034
 Frc consts  --      1.4471                 1.4690                 1.4934
 IR Inten    --      0.0446                 3.5342                 9.8540

                     70                     71                     72
                      A                      A                      A
 Frequencies --   3017.6070              3020.4878              3058.8739
 Red. masses --      1.0690                 1.0705                 1.0684
 Frc consts  --      5.7350                 5.7544                 5.8899
 IR Inten    --     44.7314                88.8874                37.4009

                     73                     74                     75
                      A                      A                      A
 Frequencies --   3064.3736              3065.1921              3070.8810
 Red. masses --      1.0653                 1.0626                 1.0623
 Frc consts  --      5.8939                 5.8823                 5.9025
 IR Inten    --     11.8155                49.3555                34.8597

                     76                     77                     78
                      A                      A                      A
 Frequencies --   3071.3176              3073.6698              3082.4200
 Red. masses --      1.0640                 1.0600                 1.0827
 Frc consts  --      5.9137                 5.9001                 6.0611
 IR Inten    --     19.8700                37.8873                55.7238

                     79                     80                     81
                      A                      A                      A
 Frequencies --   3113.0835              3116.1911              3118.0677
 Red. masses --      1.0979                 1.0983                 1.1012
 Frc consts  --      6.2687                 6.2838                 6.3080
 IR Inten    --     49.2291                38.1963                39.7510

                     82                     83                     84
                      A                      A                      A
 Frequencies --   3121.6261              3123.8788              3126.5978
 Red. masses --      1.1010                 1.1047                 1.0929
 Frc consts  --      6.3211                 6.3518                 6.2945
 IR Inten    --     35.7055                50.7807                23.7917

                     85                     86                     87
                      A                      A                      A
 Frequencies --   3131.2976              3135.8488              3137.0306
 Red. masses --      1.0922                 1.0948                 1.0994
 Frc consts  --      6.3094                 6.3432                 6.3745
 IR Inten    --     87.9315                38.9853                48.8794

 - Thermochemistry -
 -------------------
 Temperature   298.150 Kelvin.  Pressure   1.00000 Atm.
 Atom     1 has atomic number  6 and mass  12.00000

 Molecular mass:   186.12559 amu.
 Principal axes and moments of inertia in atomic units:
                           1         2         3
     Eigenvalues --   895.588534311.530014805.18529
           X            0.99987   0.01498   0.00593
           Y           -0.01483   0.99957  -0.02525
           Z           -0.00630   0.02516   0.99966
 This molecule is an asymmetric top.
 Rotational symmetry number  1.
 Warning -- assumption of classical behavior for rotation
           may cause significant error
 Rotational temperatures (Kelvin)      0.09671     0.02009     0.01803
 Rotational constants (GHZ):           2.01515     0.41858     0.37558
    1 imaginary frequencies ignored.
 Zero-point vibrational energy     737105.5 (Joules/Mol)
                                  176.17245 (Kcal/Mol)
 Warning -- explicit consideration of  17 degrees of freedom as
           vibrations may cause significant error
 Vibrational temperatures:    115.47   124.72   183.16   303.09   318.65
          (Kelvin)            348.02   436.16   445.42   534.53   586.53
                              623.05   629.76   659.15   729.06   773.81
                              792.20   874.10  1025.26  1181.07  1202.35
                             1220.74  1255.51  1277.86  1294.12  1300.68
                             1341.26  1359.48  1405.86  1431.86  1449.23
                             1505.47  1514.53  1537.63  1547.28  1623.90
                             1651.69  1653.32  1665.56  1682.54  1714.09
                             1741.90  1745.92  1781.71  1800.58  1852.02
                             1882.40  1898.03  1918.57  1933.45  1958.81
                             1963.98  1988.80  1995.01  2003.19  2013.69
                             2024.19  2036.42  2038.85  2061.59  2079.63
                             2123.58  2130.81  2133.93  2150.06  2151.33
                             2161.08  2172.70  2180.72  4341.66  4345.81
                             4401.04  4408.95  4410.13  4418.31  4418.94
                             4422.33  4434.91  4479.03  4483.50  4486.20
                             4491.32  4494.56  4498.48  4505.24  4511.79
                             4513.49

 Zero-point correction=                           0.280749 (Hartree/Particle)
 Thermal correction to Energy=                    0.291620
 Thermal correction to Enthalpy=                  0.292565
 Thermal correction to Gibbs Free Energy=         0.244214
 Sum of electronic and zero-point Energies=           -617.217540
 Sum of electronic and thermal Energies=              -617.206668
 Sum of electronic and thermal Enthalpies=            -617.205724
 Sum of electronic and thermal Free Energies=         -617.254075

                     E (Thermal)             CV                S
                      KCal/Mol        Cal/Mol-Kelvin    Cal/Mol-Kelvin
 Total                  182.995             44.801            101.762
 Electronic               0.000              0.000              0.000
 Translational            0.889              2.981             41.570
 Rotational               0.889              2.981             31.296
 Vibrational            181.217             38.840             28.897
 Vibration     1          0.600              1.963              3.885
 Vibration     2          0.601              1.958              3.734
 Vibration     3          0.611              1.926              2.986
 Vibration     4          0.643              1.825              2.038
 Vibration     5          0.648              1.808              1.947
 Vibration     6          0.658              1.776              1.789
 Vibration     7          0.695              1.668              1.399
 Vibration     8          0.699              1.655              1.365
 Vibration     9          0.743              1.531              1.074
 Vibration    10          0.772              1.454              0.935
 Vibration    11          0.794              1.398              0.849
 Vibration    12          0.798              1.388              0.834
 Vibration    13          0.816              1.343              0.772
 Vibration    14          0.862              1.235              0.642
 Vibration    15          0.893              1.166              0.570
 Vibration    16          0.906              1.138              0.543
 Vibration    17          0.966              1.016              0.437

 Optimization completed.
    -- Stationary point found.
 Normal termination of Gaussian 16 at Sun Nov  4 22:47:50 2018.
