 Gaussian 16, Revision A.03,
 Gaussian 16:  ES64L-G16RevA.03 25-Dec-2016

 ----------------------------------------------------------------------
 #M062X/6-311++G(2d,2p) opt=ModRedundant freq=noraman SCRF=(Solvent=Wat
 er)
 ----------------------------------------------------------------------

 ----------------------------
 D_1a_4e_D_PHI.inp_extract_16
 ----------------------------
 Symbolic Z-matrix:
 Charge =  0 Multiplicity = 1

 SCF Done:  E(RM062X) =  -617.479153643     A.U. after   12 cycles
 SCF Done:  E(RM062X) =  -617.471728812     A.U. after   12 cycles
 SCF Done:  E(RM062X) =  -617.479949366     A.U. after   12 cycles
 SCF Done:  E(RM062X) =  -617.480627036     A.U. after   12 cycles
 SCF Done:  E(RM062X) =  -617.481260036     A.U. after   11 cycles
 SCF Done:  E(RM062X) =  -617.481355632     A.U. after   10 cycles
 SCF Done:  E(RM062X) =  -617.481360031     A.U. after    9 cycles
 SCF Done:  E(RM062X) =  -617.481369043     A.U. after    8 cycles
 SCF Done:  E(RM062X) =  -617.481369808     A.U. after    7 cycles
 Optimization completed.
    -- Stationary point found.
 Normal termination of Gaussian 16 at Sun Nov  4 22:13:40 2018.

 ----------------------------------------------------------------------
 #N Geom=AllCheck Guess=TCheck SCRF=Check GenChk RM062X/6-311++G(2d,2p)
  Freq
 ----------------------------------------------------------------------

 Structure from the checkpoint file:  "D_1a_4e_D_PHI.inp_extract_16.chk"
 ----------------------------
 D_1a_4e_D_PHI.inp_extract_16
 ----------------------------
 Charge =  0 Multiplicity = 1

                         Standard orientation:
 ---------------------------------------------------------------------
 Center     Atomic      Atomic             Coordinates (Angstroms)
 Number     Number       Type             X           Y           Z
 ---------------------------------------------------------------------
      1          6           0       -2.615543    1.263566    0.785250
      2          6           0       -1.466803   -1.221211   -0.216940
      3          6           0        1.003990   -0.784293   -0.636591
      4          6           0       -2.449593    1.121031   -0.722688
      5          8           0        2.919373   -0.499948    0.789618
      6          6           0        3.013628    0.882929    0.472207
      7          6           0       -1.476951    0.551295    1.487214
      8          6           0        1.055458    0.674347   -1.072289
      9          6           0        1.570582   -0.943267    0.776248
     10          6           0        2.498741    1.167378   -0.930811
     11          8           0       -1.362443   -0.827220    1.124276
     12          8           0       -0.216918   -1.470655   -0.857181
     13          6           0       -2.412429   -0.363914   -1.066786
     14          1           0       -3.566486    0.824460    1.095999
     15          1           0       -2.615343    2.309122    1.093113
     16          1           0        1.696275   -1.327917   -1.285335
     17          1           0       -3.278593    1.591600   -1.250253
     18          1           0       -1.540877    1.626635   -1.048465
     19          1           0        4.063969    1.148980    0.570037
     20          1           0        2.440182    1.461253    1.207722
     21          1           0       -0.536950    1.071450    1.290278
     22          1           0       -1.623352    0.539393    2.565317
     23          1           0        0.413752    1.288720   -0.442620
     24          1           0        0.702134    0.769176   -2.099897
     25          1           0        3.138474    0.656196   -1.653081
     26          1           0        2.562074    2.236964   -1.131844
     27          1           0       -3.415370   -0.765742   -0.905767
     28          1           0       -2.162158   -0.536642   -2.112031
     29          1           0       -1.889849   -2.223976   -0.170440
     30          1           0        0.994999   -0.380466    1.513346
     31          1           0        1.570541   -1.993793    1.061334
 ---------------------------------------------------------------------

 SCF Done:  E(RM062X) =  -617.481369808     A.U. after    1 cycles

 The electronic state is 1-A.
 Alpha  occ. eigenvalues --  -19.63727 -19.62979 -19.62511 -10.64065 -10.58962
 Alpha  occ. eigenvalues --  -10.58451 -10.58082 -10.57759 -10.53364 -10.53268
 Alpha  occ. eigenvalues --  -10.53262 -10.53247 -10.53209  -1.19282  -1.16448
 Alpha  occ. eigenvalues --   -1.13341  -0.90823  -0.90576  -0.87599  -0.84542
 Alpha  occ. eigenvalues --   -0.75496  -0.74255  -0.73823  -0.70430  -0.67424
 Alpha  occ. eigenvalues --   -0.62199  -0.59937  -0.58412  -0.56698  -0.56192
 Alpha  occ. eigenvalues --   -0.54034  -0.53291  -0.51864  -0.51692  -0.50680
 Alpha  occ. eigenvalues --   -0.49302  -0.47381  -0.46116  -0.45538  -0.45174
 Alpha  occ. eigenvalues --   -0.43326  -0.42661  -0.40906  -0.40475  -0.39283
 Alpha  occ. eigenvalues --   -0.38442  -0.37508  -0.36746  -0.34646  -0.33671
 Alpha  occ. eigenvalues --   -0.31109
 Alpha virt. eigenvalues --   -0.00233   0.00657   0.00798   0.01049   0.02367
 Alpha virt. eigenvalues --    0.02644   0.02728   0.03175   0.03298   0.04880
 Alpha virt. eigenvalues --    0.05140   0.05521   0.05684   0.06032   0.06928

 Mulliken charges:
               1
     1  C   -0.392366
     2  C   -0.011231
     3  C   -0.558840
     4  C   -0.318429
     5  O   -0.327120
     6  C   -0.209133
     7  C   -0.220596
     8  C   -0.061901
     9  C   -0.243498
    10  C   -0.379580
    11  O   -0.299437
    12  O   -0.271636
    13  C   -0.280684
    14  H    0.174339
    15  H    0.182689
    16  H    0.253407
    17  H    0.212689
    18  H    0.161607
    19  H    0.222743
    20  H    0.127297
    21  H    0.148834
    22  H    0.220214
    23  H    0.209088
    24  H    0.216770
    25  H    0.183182
    26  H    0.167069
    27  H    0.205709
    28  H    0.187108
    29  H    0.246008
    30  H    0.249345
    31  H    0.206352
 Sum of Mulliken charges =   0.00000

 Dipole moment (field-independent basis, Debye):
    X=             -2.1711    Y=              4.1945    Z=             -0.7550  Tot=              4.7831
 Quadrupole moment (field-independent basis, Debye-Ang):
   XX=            -80.0510   YY=            -80.7971   ZZ=            -81.3488
   XY=              3.2521   XZ=             -2.5723   YZ=              1.5123

  Exact polarizability: 170.633   2.938 159.068  -0.313   1.957 156.023
 Approx polarizability: 147.473   1.972 145.203  -1.850   2.138 141.708

 ******    1 imaginary frequencies (negative Signs) ******

                      1                      2                      3
                      A                      A                      A
 Frequencies --    -49.1525                87.4907                99.9964
 Red. masses --      3.5418                 3.1315                 3.3851
 Frc consts  --      0.0050                 0.0141                 0.0199
 IR Inten    --      3.7545                 0.2528                 0.3487

                      4                      5                      6
                      A                      A                      A
 Frequencies --    121.1284               190.3528               211.2581
 Red. masses --      3.6353                 4.3018                 2.4519
 Frc consts  --      0.0314                 0.0918                 0.0645
 IR Inten    --      4.3525                 4.7687                 3.3335

                      7                      8                      9
                      A                      A                      A
 Frequencies --    264.9315               278.4222               326.7135
 Red. masses --      2.0373                 3.5030                 2.3486
 Frc consts  --      0.0842                 0.1600                 0.1477
 IR Inten    --      4.4634                 9.3642                 6.7543

                     10                     11                     12
                      A                      A                      A
 Frequencies --    365.8401               393.2210               414.2959
 Red. masses --      2.1937                 3.1449                 2.9112
 Frc consts  --      0.1730                 0.2865                 0.2944
 IR Inten    --      7.8060                10.5631                 2.5670

                     13                     14                     15
                      A                      A                      A
 Frequencies --    431.1479               457.5399               474.6734
 Red. masses --      3.2547                 3.2032                 3.0402
 Frc consts  --      0.3565                 0.3951                 0.4036
 IR Inten    --      6.2049                 2.0821                 0.4956

                     16                     17                     18
                      A                      A                      A
 Frequencies --    512.6091               560.0366               620.3332
 Red. masses --      2.4651                 1.9200                 3.3189
 Frc consts  --      0.3816                 0.3548                 0.7525
 IR Inten    --      1.1645                11.2658                 8.9874

                     19                     20                     21
                      A                      A                      A
 Frequencies --    706.7290               783.2202               823.3150
 Red. masses --      3.3959                 2.0771                 2.1949
 Frc consts  --      0.9993                 0.7507                 0.8766
 IR Inten    --      7.5986                10.7114                 1.5213

                     22                     23                     24
                      A                      A                      A
 Frequencies --    844.1204               874.1060               881.3551
 Red. masses --      2.3300                 2.0903                 1.5821
 Frc consts  --      0.9782                 0.9410                 0.7241
 IR Inten    --      7.0396                10.6981                18.4233

                     25                     26                     27
                      A                      A                      A
 Frequencies --    891.9099               904.2076               930.8001
 Red. masses --      2.3168                 2.4029                 1.8332
 Frc consts  --      1.0859                 1.1575                 0.9358
 IR Inten    --     11.6959                37.7861                29.2392

                     28                     29                     30
                      A                      A                      A
 Frequencies --    943.3988               953.2839               987.2411
 Red. masses --      2.4642                 1.8451                 1.4920
 Frc consts  --      1.2922                 0.9879                 0.8567
 IR Inten    --     49.8430                29.0007                 8.6663

                     31                     32                     33
                      A                      A                      A
 Frequencies --   1015.2395              1040.8033              1048.9260
 Red. masses --      2.4026                 2.3374                 1.7469
 Frc consts  --      1.4590                 1.4918                 1.1324
 IR Inten    --     40.3755                43.9051                46.7929

                     34                     35                     36
                      A                      A                      A
 Frequencies --   1069.9216              1082.9739              1122.6911
 Red. masses --      1.6942                 1.8564                 2.7413
 Frc consts  --      1.1426                 1.2828                 2.0358
 IR Inten    --     32.8823                76.2865               118.8080

                     37                     38                     39
                      A                      A                      A
 Frequencies --   1138.1748              1149.5771              1158.2625
 Red. masses --      2.8862                 2.8880                 2.8120
 Frc consts  --      2.2029                 2.2487                 2.2227
 IR Inten    --    126.6066                75.4902                58.0555

                     40                     41                     42
                      A                      A                      A
 Frequencies --   1178.6643              1199.6563              1204.5878
 Red. masses --      2.6642                 2.2379                 1.4320
 Frc consts  --      2.1807                 1.8976                 1.2243
 IR Inten    --    100.5863               139.6525                12.6072

                     43                     44                     45
                      A                      A                      A
 Frequencies --   1215.8917              1245.5877              1254.4155
 Red. masses --      1.4541                 1.7091                 1.8372
 Frc consts  --      1.2666                 1.5623                 1.7033
 IR Inten    --     51.2692                99.2677                36.7687

                     46                     47                     48
                      A                      A                      A
 Frequencies --   1298.5256              1304.4719              1323.0165
 Red. masses --      1.2119                 1.2167                 1.2144
 Frc consts  --      1.2040                 1.2199                 1.2524
 IR Inten    --     14.6792                26.8825                26.0454

                     49                     50                     51
                      A                      A                      A
 Frequencies --   1332.6048              1340.8548              1365.2846
 Red. masses --      1.3010                 1.2746                 1.3563
 Frc consts  --      1.3612                 1.3502                 1.4896
 IR Inten    --     18.7054                12.2253                 5.3372

                     52                     53                     54
                      A                      A                      A
 Frequencies --   1373.2689              1381.6366              1390.3538
 Red. masses --      1.3445                 1.4211                 1.4065
 Frc consts  --      1.4939                 1.5983                 1.6019
 IR Inten    --     35.1159                 0.2963                 5.4459

                     55                     56                     57
                      A                      A                      A
 Frequencies --   1394.0826              1401.5590              1410.7368
 Red. masses --      1.6211                 1.3338                 1.3364
 Frc consts  --      1.8562                 1.5437                 1.5670
 IR Inten    --     16.7493                 8.7897                 1.6458

                     58                     59                     60
                      A                      A                      A
 Frequencies --   1419.6790              1433.0006              1436.9662
 Red. masses --      1.3735                 1.2642                 1.3333
 Frc consts  --      1.6310                 1.5296                 1.6221
 IR Inten    --      5.8335                 4.4141                13.7645

                     61                     62                     63
                      A                      A                      A
 Frequencies --   1458.5079              1474.6478              1482.7613
 Red. masses --      1.1748                 1.0961                 1.0920
 Frc consts  --      1.4724                 1.4043                 1.4146
 IR Inten    --      5.9948                 4.2790                 3.1009

                     64                     65                     66
                      A                      A                      A
 Frequencies --   1485.9229              1493.1322              1501.7052
 Red. masses --      1.0924                 1.1127                 1.0871
 Frc consts  --      1.4211                 1.4616                 1.4444
 IR Inten    --     10.3129                21.3687                 0.5289

                     67                     68                     69
                      A                      A                      A
 Frequencies --   1509.6186              1517.6637              1530.7517
 Red. masses --      1.0991                 1.1009                 1.0938
 Frc consts  --      1.4758                 1.4939                 1.5101
 IR Inten    --      3.2992                 5.6918                 6.9609

                     70                     71                     72
                      A                      A                      A
 Frequencies --   3015.3454              3056.5366              3063.8787
 Red. masses --      1.0708                 1.0830                 1.0676
 Frc consts  --      5.7362                 5.9611                 5.9049
 IR Inten    --     71.8002                20.0758                15.5331

                     73                     74                     75
                      A                      A                      A
 Frequencies --   3067.0606              3071.0459              3071.0760
 Red. masses --      1.0693                 1.0622                 1.0628
 Frc consts  --      5.9264                 5.9021                 5.9056
 IR Inten    --      8.2365                88.5785                60.7815

                     76                     77                     78
                      A                      A                      A
 Frequencies --   3084.0660              3088.2878              3090.7602
 Red. masses --      1.0597                 1.0611                 1.0643
 Frc consts  --      5.9386                 5.9629                 5.9900
 IR Inten    --     41.0900                22.6035                57.3958

                     79                     80                     81
                      A                      A                      A
 Frequencies --   3095.3511              3118.6003              3119.5233
 Red. masses --      1.0856                 1.1006                 1.0984
 Frc consts  --      6.1280                 6.3068                 6.2980
 IR Inten    --     69.8776                16.3377                52.2675

                     82                     83                     84
                      A                      A                      A
 Frequencies --   3126.8226              3129.2546              3131.9804
 Red. masses --      1.1003                 1.1001                 1.0944
 Frc consts  --      6.3381                 6.3467                 6.3248
 IR Inten    --     29.0773                58.9119                54.1400

                     85                     86                     87
                      A                      A                      A
 Frequencies --   3135.1703              3141.5937              3148.8340
 Red. masses --      1.0994                 1.1056                 1.0980
 Frc consts  --      6.3666                 6.4290                 6.4146
 IR Inten    --     46.5358                24.7719                49.8564

 - Thermochemistry -
 -------------------
 Temperature   298.150 Kelvin.  Pressure   1.00000 Atm.
 Atom     1 has atomic number  6 and mass  12.00000

 Molecular mass:   186.12559 amu.
 Principal axes and moments of inertia in atomic units:
                           1         2         3
     Eigenvalues --  1289.842653404.958153483.01358
           X            1.00000   0.00175  -0.00222
           Y           -0.00172   0.99993   0.01178
           Z            0.00224  -0.01178   0.99993
 This molecule is an asymmetric top.
 Rotational symmetry number  1.
 Warning -- assumption of classical behavior for rotation
           may cause significant error
 Rotational temperatures (Kelvin)      0.06715     0.02544     0.02487
 Rotational constants (GHZ):           1.39919     0.53003     0.51816
    1 imaginary frequencies ignored.
 Zero-point vibrational energy     737348.2 (Joules/Mol)
                                  176.23045 (Kcal/Mol)
 Warning -- explicit consideration of  17 degrees of freedom as
           vibrations may cause significant error
 Vibrational temperatures:    125.88   143.87   174.28   273.88   303.95
          (Kelvin)            381.18   400.59   470.07   526.36   565.76
                              596.08   620.33   658.30   682.95   737.53
                              805.77   892.52  1016.83  1126.88  1184.57
                             1214.50  1257.64  1268.07  1283.26  1300.95
                             1339.21  1357.34  1371.56  1420.42  1460.70
                             1497.48  1509.17  1539.38  1558.16  1615.30
                             1637.58  1653.98  1666.48  1695.84  1726.04
                             1733.13  1749.40  1792.12  1804.82  1868.29
                             1876.84  1903.53  1917.32  1929.19  1964.34
                             1975.83  1987.87  2000.41  2005.77  2016.53
                             2029.74  2042.60  2061.77  2067.47  2098.47
                             2121.69  2133.36  2137.91  2148.28  2160.62
                             2172.00  2183.58  2202.41  4338.41  4397.67
                             4408.24  4412.82  4418.55  4418.59  4437.28
                             4443.36  4446.91  4453.52  4486.97  4488.30
                             4498.80  4502.30  4506.22  4510.81  4520.05
                             4530.47

 Zero-point correction=                           0.280841 (Hartree/Particle)
 Thermal correction to Energy=                    0.291804
 Thermal correction to Enthalpy=                  0.292748
 Thermal correction to Gibbs Free Energy=         0.244423
 Sum of electronic and zero-point Energies=           -617.200529
 Sum of electronic and thermal Energies=              -617.189566
 Sum of electronic and thermal Enthalpies=            -617.188621
 Sum of electronic and thermal Free Energies=         -617.236947

                     E (Thermal)             CV                S
                      KCal/Mol        Cal/Mol-Kelvin    Cal/Mol-Kelvin
 Total                  183.110             45.101            101.709
 Electronic               0.000              0.000              0.000
 Translational            0.889              2.981             41.570
 Rotational               0.889              2.981             31.104
 Vibrational            181.332             39.139             29.036
 Vibration     1          0.601              1.958              3.715
 Vibration     2          0.604              1.949              3.454
 Vibration     3          0.609              1.932              3.082
 Vibration     4          0.634              1.853              2.224
 Vibration     5          0.643              1.824              2.033
 Vibration     6          0.671              1.737              1.629
 Vibration     7          0.679              1.713              1.543
 Vibration     8          0.710              1.622              1.276
 Vibration     9          0.739              1.543              1.097
 Vibration    10          0.760              1.485              0.988
 Vibration    11          0.778              1.439              0.912
 Vibration    12          0.792              1.402              0.855
 Vibration    13          0.816              1.344              0.773
 Vibration    14          0.831              1.306              0.725
 Vibration    15          0.868              1.222              0.627
 Vibration    16          0.916              1.118              0.524
 Vibration    17          0.980              0.989              0.416

                           ! Non-Optimized Parameters !
 Normal termination of Gaussian 16 at Sun Nov  4 23:08:52 2018.
