 Gaussian 16, Revision A.03,
 Gaussian 16:  ES64L-G16RevA.03 25-Dec-2016

 ----------------------------------------------------------------------
 #M062X/6-311++G(2d,2p) opt=ModRedundant freq=noraman SCRF=(Solvent=Wat
 er)
 ----------------------------------------------------------------------

 ---------------------------
 D_1a_4e_D_PHI.inp_extract_8
 ---------------------------
 Symbolic Z-matrix:
 Charge =  0 Multiplicity = 1

 SCF Done:  E(RM062X) =  -617.484710583     A.U. after   12 cycles
 SCF Done:  E(RM062X) =  -617.482075790     A.U. after   11 cycles
 SCF Done:  E(RM062X) =  -617.485896288     A.U. after   11 cycles
 SCF Done:  E(RM062X) =  -617.486736037     A.U. after   11 cycles
 SCF Done:  E(RM062X) =  -617.486863180     A.U. after   10 cycles
 SCF Done:  E(RM062X) =  -617.486853546     A.U. after   10 cycles
 SCF Done:  E(RM062X) =  -617.486890803     A.U. after    9 cycles
 SCF Done:  E(RM062X) =  -617.486893469     A.U. after    9 cycles
 Optimization completed.
    -- Stationary point found.
 Normal termination of Gaussian 16 at Sun Nov  4 22:08:30 2018.

 ----------------------------------------------------------------------
 #N Geom=AllCheck Guess=TCheck SCRF=Check GenChk RM062X/6-311++G(2d,2p)
  Freq
 ----------------------------------------------------------------------

 Structure from the checkpoint file:  "D_1a_4e_D_PHI.inp_extract_8.chk"
 ---------------------------
 D_1a_4e_D_PHI.inp_extract_8
 ---------------------------
 Charge =  0 Multiplicity = 1

                         Standard orientation:
 ---------------------------------------------------------------------
 Center     Atomic      Atomic             Coordinates (Angstroms)
 Number     Number       Type             X           Y           Z
 ---------------------------------------------------------------------
      1          6           0        3.164558    1.100803    0.074117
      2          6           0        1.264349   -1.107588    0.358228
      3          6           0       -1.017061   -0.582418   -0.596757
      4          6           0        1.842881    1.371528    0.784760
      5          8           0       -2.496906    1.284042   -0.821848
      6          6           0       -3.330562    0.837487    0.241970
      7          6           0        2.939698   -0.004638   -0.937427
      8          6           0       -1.874728   -1.184332    0.513590
      9          6           0       -1.139901    0.941657   -0.590631
     10          6           0       -3.311595   -0.678623    0.359352
     11          8           0        2.509845   -1.194690   -0.281953
     12          8           0        0.290641   -1.129167   -0.678081
     13          6           0        1.257778    0.069266    1.339880
     14          1           0        3.926884    0.780286    0.787572
     15          1           0        3.529092    1.997600   -0.427000
     16          1           0       -1.460847   -0.892834   -1.546212
     17          1           0        1.972832    2.079715    1.602813
     18          1           0        1.164320    1.836079    0.071206
     19          1           0       -4.330102    1.205879    0.021966
     20          1           0       -2.990957    1.294394    1.179576
     21          1           0        2.193326    0.297187   -1.678336
     22          1           0        3.854415   -0.275156   -1.459766
     23          1           0       -1.489852   -0.896068    1.494183
     24          1           0       -1.836547   -2.272189    0.452683
     25          1           0       -3.755736   -1.106376   -0.541735
     26          1           0       -3.923739   -0.986698    1.207129
     27          1           0        1.889967   -0.260632    2.167434
     28          1           0        0.265586    0.220455    1.757793
     29          1           0        1.169527   -2.038028    0.920661
     30          1           0       -0.826956    1.378593    0.360197
     31          1           0       -0.552354    1.377452   -1.397600
 ---------------------------------------------------------------------

 SCF Done:  E(RM062X) =  -617.486893469     A.U. after    1 cycles

 The electronic state is 1-A.
 Alpha  occ. eigenvalues --  -19.63281 -19.63083 -19.62998 -10.64107 -10.59225
 Alpha  occ. eigenvalues --  -10.58288 -10.58178 -10.57829 -10.53640 -10.53408
 Alpha  occ. eigenvalues --  -10.53370 -10.53299 -10.52900  -1.19737  -1.16779
 Alpha  occ. eigenvalues --   -1.13246  -0.90484  -0.90313  -0.87406  -0.85273
 Alpha  occ. eigenvalues --   -0.75170  -0.74244  -0.73633  -0.70718  -0.67234
 Alpha  occ. eigenvalues --   -0.63024  -0.59440  -0.59029  -0.56835  -0.55904
 Alpha  occ. eigenvalues --   -0.55287  -0.53433  -0.52075  -0.50313  -0.49982
 Alpha  occ. eigenvalues --   -0.49547  -0.47954  -0.46135  -0.45812  -0.44738
 Alpha  occ. eigenvalues --   -0.44320  -0.42919  -0.40579  -0.39918  -0.39386
 Alpha  occ. eigenvalues --   -0.38134  -0.37750  -0.37170  -0.35448  -0.33438
 Alpha  occ. eigenvalues --   -0.31376
 Alpha virt. eigenvalues --   -0.00131   0.00760   0.00900   0.00967   0.02296
 Alpha virt. eigenvalues --    0.02523   0.02704   0.03322   0.03568   0.04653
 Alpha virt. eigenvalues --    0.04890   0.04944   0.05780   0.06031   0.07235

 Mulliken charges:
               1
     1  C   -0.320113
     2  C   -0.113369
     3  C   -0.352967
     4  C   -0.309767
     5  O   -0.350055
     6  C   -0.152933
     7  C   -0.224037
     8  C   -0.109396
     9  C   -0.301213
    10  C   -0.404140
    11  O   -0.266313
    12  O   -0.375288
    13  C   -0.303814
    14  H    0.171968
    15  H    0.163477
    16  H    0.266288
    17  H    0.190526
    18  H    0.169336
    19  H    0.216820
    20  H    0.128720
    21  H    0.162902
    22  H    0.223206
    23  H    0.182082
    24  H    0.185872
    25  H    0.174177
    26  H    0.170397
    27  H    0.239342
    28  H    0.184844
    29  H    0.267214
    30  H    0.237433
    31  H    0.248801
 Sum of Mulliken charges =  -0.00000

 Dipole moment (field-independent basis, Debye):
    X=             -0.9688    Y=              1.5754    Z=              3.1197  Tot=              3.6267
 Quadrupole moment (field-independent basis, Debye-Ang):
   XX=            -77.6619   YY=            -85.0758   ZZ=            -79.8066
   XY=             10.3265   XZ=             -4.0189   YZ=             -0.9290

  Exact polarizability: 177.726   2.004 155.158  -2.540  -1.552 151.946
 Approx polarizability: 150.389  -0.274 140.418  -0.102  -1.582 143.051

                      1                      2                      3
                      A                      A                      A
 Frequencies --     25.9024                94.3547               119.4224
 Red. masses --      4.1270                 3.2182                 3.3642
 Frc consts  --      0.0016                 0.0169                 0.0283
 IR Inten    --      1.4592                 2.3367                 1.3580

                      4                      5                      6
                      A                      A                      A
 Frequencies --    165.0072               175.7601               238.8458
 Red. masses --      3.6639                 2.6712                 3.3671
 Frc consts  --      0.0588                 0.0486                 0.1132
 IR Inten    --      3.9581                 1.0570                 0.1356

                      7                      8                      9
                      A                      A                      A
 Frequencies --    261.8250               300.8061               326.3867
 Red. masses --      1.9280                 2.8599                 3.1664
 Frc consts  --      0.0779                 0.1525                 0.1987
 IR Inten    --      2.8762                 8.4034                 7.0895

                     10                     11                     12
                      A                      A                      A
 Frequencies --    360.2562               376.0074               418.9754
 Red. masses --      2.3116                 2.9905                 2.5770
 Frc consts  --      0.1768                 0.2491                 0.2665
 IR Inten    --      1.6660                22.9826                 8.4107

                     13                     14                     15
                      A                      A                      A
 Frequencies --    439.8631               462.0274               477.0173
 Red. masses --      3.6737                 3.3489                 2.6985
 Frc consts  --      0.4188                 0.4212                 0.3618
 IR Inten    --      2.6782                 0.3820                 1.7982

                     16                     17                     18
                      A                      A                      A
 Frequencies --    539.5414               553.8741               665.7309
 Red. masses --      2.2234                 1.7907                 3.6199
 Frc consts  --      0.3814                 0.3237                 0.9452
 IR Inten    --      2.4414                 4.0515                 9.7066

                     19                     20                     21
                      A                      A                      A
 Frequencies --    696.8828               801.0370               827.8377
 Red. masses --      3.0740                 2.1928                 2.1180
 Frc consts  --      0.8796                 0.8290                 0.8552
 IR Inten    --      9.6804                 4.9936                 1.8970

                     22                     23                     24
                      A                      A                      A
 Frequencies --    837.2259               872.4702               884.3208
 Red. masses --      2.3952                 1.4233                 2.4491
 Frc consts  --      0.9892                 0.6384                 1.1284
 IR Inten    --      5.2086                13.0055                10.7308

                     25                     26                     27
                      A                      A                      A
 Frequencies --    891.4669               903.3852               932.3980
 Red. masses --      2.3429                 2.3089                 1.8439
 Frc consts  --      1.0970                 1.1102                 0.9445
 IR Inten    --     23.8801                42.2288                34.2695

                     28                     29                     30
                      A                      A                      A
 Frequencies --    942.1953               962.9429               996.0278
 Red. masses --      2.4729                 2.0262                 1.5208
 Frc consts  --      1.2934                 1.1070                 0.8889
 IR Inten    --     44.2529                50.5917                 4.6176

                     31                     32                     33
                      A                      A                      A
 Frequencies --   1012.5756              1034.7536              1049.5041
 Red. masses --      2.2409                 2.1786                 1.7493
 Frc consts  --      1.3537                 1.3744                 1.1352
 IR Inten    --     24.9984                51.7700                43.5951

                     34                     35                     36
                      A                      A                      A
 Frequencies --   1070.2042              1076.5096              1120.7260
 Red. masses --      2.1741                 1.5071                 2.6984
 Frc consts  --      1.4671                 1.0290                 1.9969
 IR Inten    --     30.4098                84.9923               242.9656

                     37                     38                     39
                      A                      A                      A
 Frequencies --   1142.6962              1153.5437              1159.1531
 Red. masses --      3.3252                 2.4837                 3.3563
 Frc consts  --      2.5581                 1.9472                 2.6570
 IR Inten    --     17.6208               100.8048               120.6370

                     40                     41                     42
                      A                      A                      A
 Frequencies --   1188.6948              1196.3694              1210.7982
 Red. masses --      2.4746                 2.9793                 1.5005
 Frc consts  --      2.0601                 2.5124                 1.2961
 IR Inten    --     34.6705               138.6867                82.7013

                     43                     44                     45
                      A                      A                      A
 Frequencies --   1223.2754              1244.7865              1256.0566
 Red. masses --      1.4409                 1.7040                 1.6583
 Frc consts  --      1.2704                 1.5556                 1.5415
 IR Inten    --     23.5941                32.0053                24.8850

                     46                     47                     48
                      A                      A                      A
 Frequencies --   1297.0901              1305.4186              1322.0784
 Red. masses --      1.2248                 1.1765                 1.1762
 Frc consts  --      1.2141                 1.1812                 1.2113
 IR Inten    --     16.1453                24.3547                 7.3497

                     49                     50                     51
                      A                      A                      A
 Frequencies --   1338.9495              1343.1552              1366.0306
 Red. masses --      1.3029                 1.2857                 1.3240
 Frc consts  --      1.3762                 1.3666                 1.4556
 IR Inten    --     11.9834                 4.5922                 4.0054

                     52                     53                     54
                      A                      A                      A
 Frequencies --   1379.5357              1383.9530              1388.4072
 Red. masses --      1.3215                 1.4061                 1.4818
 Frc consts  --      1.4818                 1.5867                 1.6829
 IR Inten    --     38.6954                 3.0086                17.1418

                     55                     56                     57
                      A                      A                      A
 Frequencies --   1395.0752              1398.9564              1403.0845
 Red. masses --      1.4352                 1.2874                 1.3461
 Frc consts  --      1.6457                 1.4845                 1.5613
 IR Inten    --      1.5313                 3.0794                11.2248

                     58                     59                     60
                      A                      A                      A
 Frequencies --   1414.7677              1421.0900              1432.2392
 Red. masses --      1.2954                 1.3547                 1.3712
 Frc consts  --      1.5277                 1.6119                 1.6572
 IR Inten    --      2.1177                11.0429                12.4409

                     61                     62                     63
                      A                      A                      A
 Frequencies --   1439.3692              1479.8918              1481.5136
 Red. masses --      1.3234                 1.0952                 1.0954
 Frc consts  --      1.6155                 1.4132                 1.4166
 IR Inten    --     12.6354                 7.1845                 1.2417

                     64                     65                     66
                      A                      A                      A
 Frequencies --   1487.9340              1497.3955              1502.0263
 Red. masses --      1.0832                 1.1093                 1.1048
 Frc consts  --      1.4129                 1.4655                 1.4686
 IR Inten    --      8.1057                12.8701                15.8975

                     67                     68                     69
                      A                      A                      A
 Frequencies --   1506.0927              1515.2145              1524.0986
 Red. masses --      1.0850                 1.0947                 1.0944
 Frc consts  --      1.4500                 1.4808                 1.4978
 IR Inten    --      3.0397                 3.6793                12.4007

                     70                     71                     72
                      A                      A                      A
 Frequencies --   3019.1128              3052.4932              3059.9123
 Red. masses --      1.0707                 1.0683                 1.0786
 Frc consts  --      5.7502                 5.8648                 5.9502
 IR Inten    --     68.0993                48.4645                 3.7408

                     73                     74                     75
                      A                      A                      A
 Frequencies --   3067.6814              3068.8535              3070.2967
 Red. masses --      1.0623                 1.0623                 1.0718
 Frc consts  --      5.8898                 5.8943                 5.9530
 IR Inten    --     32.8847                69.2547                13.1955

                     76                     77                     78
                      A                      A                      A
 Frequencies --   3071.2330              3075.2141              3084.0654
 Red. masses --      1.0645                 1.0659                 1.0812
 Frc consts  --      5.9161                 5.9389                 6.0588
 IR Inten    --      4.2047                83.7657                98.1496

                     79                     80                     81
                      A                      A                      A
 Frequencies --   3092.3452              3115.2978              3117.4166
 Red. masses --      1.0642                 1.1004                 1.1007
 Frc consts  --      5.9956                 6.2919                 6.3022
 IR Inten    --     38.1410                36.9194                30.1959

                     82                     83                     84
                      A                      A                      A
 Frequencies --   3122.5314              3132.9223              3135.0820
 Red. masses --      1.1039                 1.1036                 1.0978
 Frc consts  --      6.3414                 6.3823                 6.3575
 IR Inten    --     52.1932                40.1659                38.6406

                     85                     86                     87
                      A                      A                      A
 Frequencies --   3135.4966              3139.7301              3154.6283
 Red. masses --      1.0965                 1.0990                 1.0917
 Frc consts  --      6.3514                 6.3832                 6.4009
 IR Inten    --     57.0841                41.1215                32.4368

 - Thermochemistry -
 -------------------
 Temperature   298.150 Kelvin.  Pressure   1.00000 Atm.
 Atom     1 has atomic number  6 and mass  12.00000

 Molecular mass:   186.12559 amu.
 Principal axes and moments of inertia in atomic units:
                           1         2         3
     Eigenvalues --  1074.376093806.910594156.72148
           X            0.99974   0.02191  -0.00642
           Y           -0.02194   0.99975  -0.00392
           Z            0.00633   0.00406   0.99997
 This molecule is an asymmetric top.
 Rotational symmetry number  1.
 Warning -- assumption of classical behavior for rotation
           may cause significant error
 Rotational temperatures (Kelvin)      0.08062     0.02275     0.02084
 Rotational constants (GHZ):           1.67980     0.47407     0.43417
 Zero-point vibrational energy     738258.1 (Joules/Mol)
                                  176.44793 (Kcal/Mol)
 Warning -- explicit consideration of  17 degrees of freedom as
           vibrations may cause significant error
 Vibrational temperatures:     37.27   135.76   171.82   237.41   252.88
          (Kelvin)            343.65   376.71   432.79   469.60   518.33
                              540.99   602.81   632.86   664.75   686.32
                              776.28   796.90   957.84  1002.66  1152.51
                             1191.07  1204.58  1255.29  1272.34  1282.62
                             1299.77  1341.51  1355.61  1385.46  1433.06
                             1456.87  1488.78  1510.00  1539.79  1548.86
                             1612.47  1644.08  1659.69  1667.76  1710.27
                             1721.31  1742.07  1760.02  1790.97  1807.19
                             1866.22  1878.21  1902.18  1926.45  1932.50
                             1965.41  1984.84  1991.20  1997.61  2007.20
                             2012.79  2018.73  2035.54  2044.63  2060.67
                             2070.93  2129.23  2131.57  2140.81  2154.42
                             2161.08  2166.93  2180.06  2192.84  4343.83
                             4391.86  4402.53  4413.71  4415.40  4417.47
                             4418.82  4424.55  4437.28  4449.19  4482.22
                             4485.27  4492.63  4507.58  4510.68  4511.28
                             4517.37  4538.81

 Zero-point correction=                           0.281188 (Hartree/Particle)
 Thermal correction to Energy=                    0.292835
 Thermal correction to Enthalpy=                  0.293779
 Thermal correction to Gibbs Free Energy=         0.243142
 Sum of electronic and zero-point Energies=           -617.205706
 Sum of electronic and thermal Energies=              -617.194059
 Sum of electronic and thermal Enthalpies=            -617.193115
 Sum of electronic and thermal Free Energies=         -617.243752

                     E (Thermal)             CV                S
                      KCal/Mol        Cal/Mol-Kelvin    Cal/Mol-Kelvin
 Total                  183.757             46.800            106.574
 Electronic               0.000              0.000              0.000
 Translational            0.889              2.981             41.570
 Rotational               0.889              2.981             31.209
 Vibrational            181.979             40.839             33.796
 Vibration     1          0.593              1.985              6.121
 Vibration     2          0.603              1.953              3.568
 Vibration     3          0.609              1.933              3.110
 Vibration     4          0.623              1.885              2.492
 Vibration     5          0.628              1.872              2.373
 Vibration     6          0.657              1.781              1.811
 Vibration     7          0.669              1.743              1.650
 Vibration     8          0.693              1.672              1.412
 Vibration     9          0.710              1.623              1.278
 Vibration    10          0.735              1.554              1.121
 Vibration    11          0.747              1.521              1.055
 Vibration    12          0.782              1.429              0.895
 Vibration    13          0.800              1.383              0.827
 Vibration    14          0.820              1.334              0.760
 Vibration    15          0.834              1.301              0.718
 Vibration    16          0.895              1.163              0.566
 Vibration    17          0.909              1.131              0.536

 Optimization completed.
    -- Stationary point found.
 Normal termination of Gaussian 16 at Sun Nov  4 23:04:32 2018.
