 Gaussian 16, Revision A.03,
 Gaussian 16:  ES64L-G16RevA.03 25-Dec-2016

 ----------------------------------------------------------------------
 #M062X/6-311++G(2d,2p) opt=ModRedundant freq=noraman SCRF=(Solvent=Wat
 er)
 ----------------------------------------------------------------------

 ----------------------------
 D_1a_4e_D_PHI.inp_extract_10
 ----------------------------
 Symbolic Z-matrix:
 Charge =  0 Multiplicity = 1

 SCF Done:  E(RM062X) =  -617.476502506     A.U. after   12 cycles
 SCF Done:  E(RM062X) =  -617.469866734     A.U. after   12 cycles
 SCF Done:  E(RM062X) =  -617.477121281     A.U. after   12 cycles
 SCF Done:  E(RM062X) =  -617.478413789     A.U. after   12 cycles
 SCF Done:  E(RM062X) =  -617.478540997     A.U. after   10 cycles
 SCF Done:  E(RM062X) =  -617.478566637     A.U. after   10 cycles
 SCF Done:  E(RM062X) =  -617.478571471     A.U. after    8 cycles
 SCF Done:  E(RM062X) =  -617.478572274     A.U. after    9 cycles
 SCF Done:  E(RM062X) =  -617.478572355     A.U. after    7 cycles
 Optimization completed.
    -- Stationary point found.
 Normal termination of Gaussian 16 at Sun Nov  4 22:12:51 2018.

 ----------------------------------------------------------------------
 #N Geom=AllCheck Guess=TCheck SCRF=Check GenChk RM062X/6-311++G(2d,2p)
  Freq
 ----------------------------------------------------------------------

 Structure from the checkpoint file:  "D_1a_4e_D_PHI.inp_extract_10.chk"
 ----------------------------
 D_1a_4e_D_PHI.inp_extract_10
 ----------------------------
 Charge =  0 Multiplicity = 1

                         Standard orientation:
 ---------------------------------------------------------------------
 Center     Atomic      Atomic             Coordinates (Angstroms)
 Number     Number       Type             X           Y           Z
 ---------------------------------------------------------------------
      1          6           0        3.081541    1.157070    0.075714
      2          6           0        1.357288   -1.209141    0.282570
      3          6           0       -1.033691   -0.664373   -0.530939
      4          6           0        1.888411    1.247719    1.021169
      5          8           0       -2.292989    1.343322   -0.833010
      6          6           0       -3.242371    0.994268    0.168822
      7          6           0        2.712321    0.237194   -1.069542
      8          6           0       -2.011277   -1.156766    0.532992
      9          6           0       -0.999554    0.861612   -0.506779
     10          6           0       -3.380063   -0.514579    0.295766
     11          8           0        2.460508   -1.072372   -0.576907
     12          8           0        0.191661   -1.384861   -0.508432
     13          6           0        1.367297   -0.148135    1.395836
     14          1           0        3.953781    0.743698    0.586504
     15          1           0        3.349835    2.143687   -0.301854
     16          1           0       -1.449534   -0.925836   -1.507216
     17          1           0        2.156380    1.771990    1.938065
     18          1           0        1.122279    1.847426    0.536335
     19          1           0       -4.181604    1.456285   -0.127071
     20          1           0       -2.927872    1.428102    1.125718
     21          1           0        1.833481    0.611566   -1.605006
     22          1           0        3.522853    0.130226   -1.786808
     23          1           0       -1.641460   -0.888064    1.526059
     24          1           0       -2.077924   -2.243576    0.488572
     25          1           0       -3.812018   -0.907375   -0.627014
     26          1           0       -4.067034   -0.751648    1.108338
     27          1           0        2.045110   -0.554745    2.148456
     28          1           0        0.387962   -0.096065    1.868810
     29          1           0        1.512113   -2.181333    0.748091
     30          1           0       -0.728953    1.237005    0.482052
     31          1           0       -0.310252    1.260739   -1.248891
 ---------------------------------------------------------------------

 SCF Done:  E(RM062X) =  -617.478572355     A.U. after    1 cycles

 The electronic state is 1-A.
 Alpha  occ. eigenvalues --  -19.63360 -19.63017 -19.62764 -10.64266 -10.59288
 Alpha  occ. eigenvalues --  -10.58453 -10.58181 -10.58006 -10.53948 -10.53379
 Alpha  occ. eigenvalues --  -10.53335 -10.53207 -10.52974  -1.19396  -1.16859
 Alpha  occ. eigenvalues --   -1.13234  -0.90620  -0.90354  -0.87506  -0.85240
 Alpha  occ. eigenvalues --   -0.75403  -0.74291  -0.73951  -0.70591  -0.67175
 Alpha  occ. eigenvalues --   -0.63048  -0.59811  -0.58847  -0.56626  -0.55829
 Alpha  occ. eigenvalues --   -0.55336  -0.53305  -0.52298  -0.50659  -0.50261
 Alpha  occ. eigenvalues --   -0.49693  -0.48019  -0.46046  -0.45589  -0.44604
 Alpha  occ. eigenvalues --   -0.44413  -0.42353  -0.40392  -0.39810  -0.39751
 Alpha  occ. eigenvalues --   -0.38310  -0.38094  -0.36783  -0.34680  -0.33753
 Alpha  occ. eigenvalues --   -0.31600
 Alpha virt. eigenvalues --   -0.00167   0.00716   0.00889   0.00958   0.02282
 Alpha virt. eigenvalues --    0.02523   0.02659   0.03214   0.03610   0.04773
 Alpha virt. eigenvalues --    0.04898   0.04996   0.05588   0.06015   0.07252

 Mulliken charges:
               1
     1  C   -0.325401
     2  C   -0.066403
     3  C   -0.350405
     4  C   -0.316355
     5  O   -0.333159
     6  C   -0.165284
     7  C   -0.214277
     8  C   -0.081007
     9  C   -0.354626
    10  C   -0.374307
    11  O   -0.230549
    12  O   -0.390349
    13  C   -0.348798
    14  H    0.175251
    15  H    0.161031
    16  H    0.263522
    17  H    0.190727
    18  H    0.169892
    19  H    0.208942
    20  H    0.131373
    21  H    0.144180
    22  H    0.225695
    23  H    0.184087
    24  H    0.183317
    25  H    0.171620
    26  H    0.171439
    27  H    0.237115
    28  H    0.177484
    29  H    0.246096
    30  H    0.243761
    31  H    0.265388
 Sum of Mulliken charges =  -0.00000

 Dipole moment (field-independent basis, Debye):
    X=             -0.8635    Y=              1.8935    Z=              3.3357  Tot=              3.9316
 Quadrupole moment (field-independent basis, Debye-Ang):
   XX=            -76.2930   YY=            -85.6407   ZZ=            -79.7786
   XY=              8.8266   XZ=             -2.2212   YZ=             -1.5925

  Exact polarizability: 177.536   1.751 156.136  -1.743  -1.575 152.048
 Approx polarizability: 150.536  -0.625 141.465   0.151  -1.555 142.270

 ******    1 imaginary frequencies (negative Signs) ******

                      1                      2                      3
                      A                      A                      A
 Frequencies --    -74.2859                63.0867               119.5653
 Red. masses --      5.8350                 3.3653                 3.2523
 Frc consts  --      0.0190                 0.0079                 0.0274
 IR Inten    --      2.7296                 2.5945                 0.6253

                      4                      5                      6
                      A                      A                      A
 Frequencies --    122.8868               185.0748               226.5793
 Red. masses --      3.0260                 2.8918                 2.8923
 Frc consts  --      0.0269                 0.0584                 0.0875
 IR Inten    --      4.4916                 0.9580                 1.5636

                      7                      8                      9
                      A                      A                      A
 Frequencies --    258.3406               271.1464               326.9495
 Red. masses --      1.9194                 3.4963                 2.0552
 Frc consts  --      0.0755                 0.1514                 0.1294
 IR Inten    --      2.4402                 5.5399                 4.5887

                     10                     11                     12
                      A                      A                      A
 Frequencies --    347.5707               363.0722               419.4462
 Red. masses --      2.5637                 2.9404                 3.0159
 Frc consts  --      0.1825                 0.2284                 0.3126
 IR Inten    --      4.2921                 8.9832                12.7611

                     13                     14                     15
                      A                      A                      A
 Frequencies --    438.7911               463.6396               473.0770
 Red. masses --      3.7893                 3.4454                 2.6840
 Frc consts  --      0.4299                 0.4364                 0.3539
 IR Inten    --      5.6905                 0.7713                 1.7244

                     16                     17                     18
                      A                      A                      A
 Frequencies --    540.4708               552.5674               629.1920
 Red. masses --      2.3204                 1.7910                 4.2227
 Frc consts  --      0.3994                 0.3222                 0.9849
 IR Inten    --      3.2803                 3.4990                17.4786

                     19                     20                     21
                      A                      A                      A
 Frequencies --    697.6692               779.9974               825.0243
 Red. masses --      2.7718                 2.0498                 2.3952
 Frc consts  --      0.7949                 0.7348                 0.9606
 IR Inten    --     11.0577                 9.9367                 1.4812

                     22                     23                     24
                      A                      A                      A
 Frequencies --    829.9946               874.2379               883.9366
 Red. masses --      2.3033                 1.3980                 2.4548
 Frc consts  --      0.9349                 0.6295                 1.1301
 IR Inten    --     12.1496                 9.9448                20.9870

                     25                     26                     27
                      A                      A                      A
 Frequencies --    894.9436               900.2874               931.0437
 Red. masses --      2.3075                 2.4859                 1.9939
 Frc consts  --      1.0889                 1.1871                 1.0184
 IR Inten    --     21.9427                48.6068                53.7130

                     28                     29                     30
                      A                      A                      A
 Frequencies --    937.4371               950.8316               996.7444
 Red. masses --      2.3718                 1.9343                 1.4840
 Frc consts  --      1.2280                 1.0304                 0.8687
 IR Inten    --     29.4712                45.4055                 7.3060

                     31                     32                     33
                      A                      A                      A
 Frequencies --   1013.7084              1030.9808              1049.7754
 Red. masses --      2.4043                 2.2438                 1.7348
 Frc consts  --      1.4556                 1.4052                 1.1264
 IR Inten    --     27.1712                51.9071                69.9157

                     34                     35                     36
                      A                      A                      A
 Frequencies --   1070.7389              1078.1414              1117.4431
 Red. masses --      1.9619                 1.7485                 2.6938
 Frc consts  --      1.3252                 1.1974                 1.9818
 IR Inten    --     16.4796               160.9895               267.7506

                     37                     38                     39
                      A                      A                      A
 Frequencies --   1142.7669              1149.0240              1159.6097
 Red. masses --      3.1657                 2.4242                 3.1286
 Frc consts  --      2.4358                 1.8857                 2.4787
 IR Inten    --     22.9816                54.3219               124.8882

                     40                     41                     42
                      A                      A                      A
 Frequencies --   1186.1205              1198.4215              1210.3495
 Red. masses --      2.7178                 2.7278                 1.4746
 Frc consts  --      2.2528                 2.3082                 1.2728
 IR Inten    --     30.9537               150.8830                48.5703

                     43                     44                     45
                      A                      A                      A
 Frequencies --   1219.9947              1245.9740              1254.5200
 Red. masses --      1.4419                 1.6147                 1.7002
 Frc consts  --      1.2644                 1.4769                 1.5765
 IR Inten    --     38.1635                31.3698                28.1661

                     46                     47                     48
                      A                      A                      A
 Frequencies --   1302.8944              1304.4727              1318.1708
 Red. masses --      1.2070                 1.2086                 1.2168
 Frc consts  --      1.2072                 1.2117                 1.2457
 IR Inten    --      6.7155                37.9674                14.8017

                     49                     50                     51
                      A                      A                      A
 Frequencies --   1339.6571              1342.3155              1367.1428
 Red. masses --      1.3258                 1.2618                 1.3071
 Frc consts  --      1.4019                 1.3395                 1.4394
 IR Inten    --      7.7207                10.8556                 5.0923

                     52                     53                     54
                      A                      A                      A
 Frequencies --   1377.0795              1384.6169              1389.7452
 Red. masses --      1.3303                 1.4189                 1.4883
 Frc consts  --      1.4864                 1.6027                 1.6936
 IR Inten    --     40.2046                 2.6817                10.4633

                     55                     56                     57
                      A                      A                      A
 Frequencies --   1394.0176              1398.6132              1405.1749
 Red. masses --      1.4319                 1.3187                 1.3763
 Frc consts  --      1.6395                 1.5198                 1.6012
 IR Inten    --      1.8609                 6.9428                 5.0526

                     58                     59                     60
                      A                      A                      A
 Frequencies --   1414.8137              1427.9209              1435.9657
 Red. masses --      1.3244                 1.3059                 1.3488
 Frc consts  --      1.5620                 1.5688                 1.6387
 IR Inten    --      7.2820                12.7281                16.8315

                     61                     62                     63
                      A                      A                      A
 Frequencies --   1444.1091              1478.4191              1480.5794
 Red. masses --      1.2001                 1.0926                 1.0948
 Frc consts  --      1.4745                 1.4071                 1.4140
 IR Inten    --      1.3051                 5.1049                 1.0638

                     64                     65                     66
                      A                      A                      A
 Frequencies --   1484.2176              1494.4229              1501.0008
 Red. masses --      1.0818                 1.1095                 1.0983
 Frc consts  --      1.4041                 1.4600                 1.4579
 IR Inten    --      9.5104                14.7126                14.3738

                     67                     68                     69
                      A                      A                      A
 Frequencies --   1507.3639              1514.6120              1529.0953
 Red. masses --      1.0910                 1.0962                 1.0881
 Frc consts  --      1.4605                 1.4816                 1.4989
 IR Inten    --     11.3999                 3.7008                 6.3959

                     70                     71                     72
                      A                      A                      A
 Frequencies --   3020.8958              3044.4189              3058.0502
 Red. masses --      1.0706                 1.0692                 1.0757
 Frc consts  --      5.7565                 5.8385                 5.9268
 IR Inten    --     68.2699                56.6720                 0.7395

                     73                     74                     75
                      A                      A                      A
 Frequencies --   3065.9841              3069.6022              3071.1604
 Red. masses --      1.0671                 1.0623                 1.0616
 Frc consts  --      5.9103                 5.8976                 5.8993
 IR Inten    --     21.7899                48.0169                32.4171

                     76                     77                     78
                      A                      A                      A
 Frequencies --   3074.6607              3078.0200              3095.5222
 Red. masses --      1.0651                 1.0705                 1.0699
 Frc consts  --      5.9326                 5.9757                 6.0403
 IR Inten    --     78.8185                23.0943                58.0299

                     79                     80                     81
                      A                      A                      A
 Frequencies --   3101.8391              3116.6709              3119.4471
 Red. masses --      1.0832                 1.0984                 1.1011
 Frc consts  --      6.1406                 6.2860                 6.3129
 IR Inten    --     74.2240                38.5695                25.9493

                     82                     83                     84
                      A                      A                      A
 Frequencies --   3121.7412              3134.6501              3135.4464
 Red. masses --      1.1034                 1.0957                 1.0949
 Frc consts  --      6.3353                 6.3432                 6.3418
 IR Inten    --     52.9475                76.2318                25.9112

                     85                     86                     87
                      A                      A                      A
 Frequencies --   3136.8258              3141.8995              3154.8871
 Red. masses --      1.0951                 1.1036                 1.0954
 Frc consts  --      6.3487                 6.4189                 6.4237
 IR Inten    --     13.0122                45.9206                39.0347

 - Thermochemistry -
 -------------------
 Temperature   298.150 Kelvin.  Pressure   1.00000 Atm.
 Atom     1 has atomic number  6 and mass  12.00000

 Molecular mass:   186.12559 amu.
 Principal axes and moments of inertia in atomic units:
                           1         2         3
     Eigenvalues --  1142.035933720.974254070.41035
           X            0.99977   0.02124  -0.00393
           Y           -0.02127   0.99974  -0.00831
           Z            0.00375   0.00840   0.99996
 This molecule is an asymmetric top.
 Rotational symmetry number  1.
 Warning -- assumption of classical behavior for rotation
           may cause significant error
 Rotational temperatures (Kelvin)      0.07584     0.02328     0.02128
 Rotational constants (GHZ):           1.58028     0.48502     0.44338
    1 imaginary frequencies ignored.
 Zero-point vibrational energy     736955.4 (Joules/Mol)
                                  176.13656 (Kcal/Mol)
 Warning -- explicit consideration of  16 degrees of freedom as
           vibrations may cause significant error
 Vibrational temperatures:     90.77   172.03   176.81   266.28   326.00
          (Kelvin)            371.69   390.12   470.41   500.08   522.38
                              603.49   631.32   667.07   680.65   777.62
                              795.02   905.27  1003.79  1122.24  1187.03
                             1194.18  1257.83  1271.79  1287.62  1295.31
                             1339.56  1348.76  1368.03  1434.09  1458.50
                             1483.35  1510.39  1540.55  1551.21  1607.75
                             1644.19  1653.19  1668.42  1706.56  1724.26
                             1741.42  1755.30  1792.68  1804.97  1874.57
                             1876.85  1896.55  1927.47  1931.29  1967.01
                             1981.31  1992.15  1999.53  2005.68  2012.29
                             2021.73  2035.60  2054.46  2066.03  2077.75
                             2127.12  2130.22  2135.46  2150.14  2159.61
                             2168.76  2179.19  2200.03  4346.40  4380.24
                             4399.85  4411.27  4416.47  4418.71  4423.75
                             4428.58  4453.77  4462.85  4484.19  4488.19
                             4491.49  4510.06  4511.21  4513.19  4520.49
                             4539.18

 Zero-point correction=                           0.280691 (Hartree/Particle)
 Thermal correction to Energy=                    0.291692
 Thermal correction to Enthalpy=                  0.292637
 Thermal correction to Gibbs Free Energy=         0.244068
 Sum of electronic and zero-point Energies=           -617.197881
 Sum of electronic and thermal Energies=              -617.186880
 Sum of electronic and thermal Enthalpies=            -617.185936
 Sum of electronic and thermal Free Energies=         -617.234504

                     E (Thermal)             CV                S
                      KCal/Mol        Cal/Mol-Kelvin    Cal/Mol-Kelvin
 Total                  183.040             45.153            102.221
 Electronic               0.000              0.000              0.000
 Translational            0.889              2.981             41.570
 Rotational               0.889              2.981             31.226
 Vibrational            181.262             39.191             29.425
 Vibration     1          0.597              1.972              4.358
 Vibration     2          0.609              1.933              3.107
 Vibration     3          0.610              1.930              3.054
 Vibration     4          0.631              1.860              2.277
 Vibration     5          0.650              1.801              1.906
 Vibration     6          0.667              1.749              1.673
 Vibration     7          0.675              1.726              1.589
 Vibration     8          0.711              1.622              1.275
 Vibration     9          0.725              1.580              1.177
 Vibration    10          0.737              1.548              1.109
 Vibration    11          0.782              1.428              0.894
 Vibration    12          0.799              1.386              0.830
 Vibration    13          0.821              1.331              0.756
 Vibration    14          0.830              1.310              0.729
 Vibration    15          0.896              1.161              0.564
 Vibration    16          0.908              1.134              0.539

 Optimization completed.
    -- Stationary point found.
 Normal termination of Gaussian 16 at Sun Nov  4 23:08:27 2018.
