 Gaussian 16, Revision A.03,
 Gaussian 16:  ES64L-G16RevA.03 25-Dec-2016

 ----------------------------------------------------------------------
 #M062X/6-311++G(2d,2p) opt=ModRedundant freq=noraman SCRF=(Solvent=Wat
 er)
 ----------------------------------------------------------------------

 ---------------------------
 D_1a_4e_D_PHI.inp_extract_9
 ---------------------------
 Symbolic Z-matrix:
 Charge =  0 Multiplicity = 1

 SCF Done:  E(RM062X) =  -617.480057482     A.U. after   12 cycles
 SCF Done:  E(RM062X) =  -617.475138467     A.U. after   12 cycles
 SCF Done:  E(RM062X) =  -617.480871215     A.U. after   12 cycles
 SCF Done:  E(RM062X) =  -617.481960662     A.U. after   12 cycles
 SCF Done:  E(RM062X) =  -617.482132101     A.U. after   10 cycles
 SCF Done:  E(RM062X) =  -617.482181107     A.U. after   10 cycles
 SCF Done:  E(RM062X) =  -617.482196170     A.U. after   10 cycles
 SCF Done:  E(RM062X) =  -617.482197261     A.U. after    7 cycles
 Optimization completed.
    -- Stationary point found.
 Normal termination of Gaussian 16 at Sun Nov  4 22:09:13 2018.

 ----------------------------------------------------------------------
 #N Geom=AllCheck Guess=TCheck SCRF=Check GenChk RM062X/6-311++G(2d,2p)
  Freq
 ----------------------------------------------------------------------

 Structure from the checkpoint file:  "D_1a_4e_D_PHI.inp_extract_9.chk"
 ---------------------------
 D_1a_4e_D_PHI.inp_extract_9
 ---------------------------
 Charge =  0 Multiplicity = 1

                         Standard orientation:
 ---------------------------------------------------------------------
 Center     Atomic      Atomic             Coordinates (Angstroms)
 Number     Number       Type             X           Y           Z
 ---------------------------------------------------------------------
      1          6           0        3.113547    1.138918    0.069677
      2          6           0        1.320303   -1.167980    0.326645
      3          6           0       -1.024389   -0.631157   -0.556455
      4          6           0        1.857970    1.312635    0.917423
      5          8           0       -2.386549    1.311648   -0.841483
      6          6           0       -3.285108    0.924020    0.192462
      7          6           0        2.812245    0.126913   -1.016422
      8          6           0       -1.946526   -1.167456    0.535843
      9          6           0       -1.061622    0.895907   -0.552347
     10          6           0       -3.349330   -0.588955    0.330665
     11          8           0        2.500672   -1.132573   -0.432468
     12          8           0        0.241714   -1.272682   -0.593646
     13          6           0        1.311500   -0.046415    1.375567
     14          1           0        3.943582    0.767875    0.674666
     15          1           0        3.417191    2.088225   -0.371534
     16          1           0       -1.459618   -0.920115   -1.516413
     17          1           0        2.060457    1.920622    1.798849
     18          1           0        1.127566    1.858627    0.324874
     19          1           0       -4.254341    1.339745   -0.073878
     20          1           0       -2.960665    1.377491    1.136949
     21          1           0        1.977392    0.462729   -1.640531
     22          1           0        3.669504   -0.052466   -1.661129
     23          1           0       -1.571010   -0.881306    1.521119
     24          1           0       -1.964621   -2.256455    0.493638
     25          1           0       -3.787041   -1.006783   -0.578238
     26          1           0       -4.003223   -0.851692    1.162415
     27          1           0        1.967488   -0.414599    2.167021
     28          1           0        0.324218    0.049273    1.822590
     29          1           0        1.363336   -2.123377    0.849723
     30          1           0       -0.773893    1.305116    0.418219
     31          1           0       -0.414570    1.307363   -1.325926
 ---------------------------------------------------------------------

 SCF Done:  E(RM062X) =  -617.482197261     A.U. after    1 cycles

 The electronic state is 1-A.
 Alpha  occ. eigenvalues --  -19.63321 -19.63045 -19.62860 -10.64196 -10.59261
 Alpha  occ. eigenvalues --  -10.58364 -10.58182 -10.57913 -10.53836 -10.53369
 Alpha  occ. eigenvalues --  -10.53341 -10.53281 -10.52927  -1.19579  -1.16822
 Alpha  occ. eigenvalues --   -1.13220  -0.90550  -0.90322  -0.87458  -0.85257
 Alpha  occ. eigenvalues --   -0.75263  -0.74295  -0.73795  -0.70638  -0.67245
 Alpha  occ. eigenvalues --   -0.63044  -0.59547  -0.58998  -0.56713  -0.55893
 Alpha  occ. eigenvalues --   -0.55288  -0.53379  -0.52192  -0.50426  -0.50150
 Alpha  occ. eigenvalues --   -0.49594  -0.48006  -0.46094  -0.45710  -0.44653
 Alpha  occ. eigenvalues --   -0.44384  -0.42638  -0.40479  -0.39789  -0.39542
 Alpha  occ. eigenvalues --   -0.38183  -0.37995  -0.37001  -0.35119  -0.33586
 Alpha  occ. eigenvalues --   -0.31434
 Alpha virt. eigenvalues --   -0.00151   0.00742   0.00913   0.00941   0.02292
 Alpha virt. eigenvalues --    0.02520   0.02679   0.03250   0.03596   0.04731
 Alpha virt. eigenvalues --    0.04893   0.04972   0.05674   0.06029   0.07230

 Mulliken charges:
               1
     1  C   -0.311648
     2  C   -0.085287
     3  C   -0.356168
     4  C   -0.328976
     5  O   -0.342725
     6  C   -0.160483
     7  C   -0.214475
     8  C   -0.090392
     9  C   -0.321026
    10  C   -0.395037
    11  O   -0.235203
    12  O   -0.388313
    13  C   -0.331980
    14  H    0.174219
    15  H    0.160682
    16  H    0.265942
    17  H    0.190515
    18  H    0.170927
    19  H    0.212493
    20  H    0.130206
    21  H    0.152388
    22  H    0.225278
    23  H    0.183884
    24  H    0.184834
    25  H    0.172828
    26  H    0.170662
    27  H    0.239581
    28  H    0.176371
    29  H    0.254737
    30  H    0.238549
    31  H    0.257619
 Sum of Mulliken charges =  -0.00000

 Dipole moment (field-independent basis, Debye):
    X=             -0.9641    Y=              1.7585    Z=              3.2672  Tot=              3.8336
 Quadrupole moment (field-independent basis, Debye-Ang):
   XX=            -77.1499   YY=            -85.3537   ZZ=            -79.7519
   XY=              9.6167   XZ=             -3.1217   YZ=             -1.3423

  Exact polarizability: 177.601   1.875 155.690  -2.078  -1.605 152.141
 Approx polarizability: 150.479  -0.480 140.953   0.089  -1.520 142.699

 ******    1 imaginary frequencies (negative Signs) ******

                      1                      2                      3
                      A                      A                      A
 Frequencies --    -47.6196                84.1884               119.4186
 Red. masses --      4.7575                 3.3420                 3.2223
 Frc consts  --      0.0064                 0.0140                 0.0271
 IR Inten    --      1.6215                 2.6828                 0.8377

                      4                      5                      6
                      A                      A                      A
 Frequencies --    145.6543               184.5608               234.1023
 Red. masses --      3.3685                 2.8090                 3.1947
 Frc consts  --      0.0421                 0.0564                 0.1032
 IR Inten    --      5.1420                 0.7488                 0.7511

                      7                      8                      9
                      A                      A                      A
 Frequencies --    260.3504               285.6867               327.8121
 Red. masses --      1.9213                 3.3051                 2.4472
 Frc consts  --      0.0767                 0.1589                 0.1549
 IR Inten    --      2.3234                 8.7089                 5.5002

                     10                     11                     12
                      A                      A                      A
 Frequencies --    351.2419               368.3732               417.6216
 Red. masses --      2.4878                 2.7640                 2.7803
 Frc consts  --      0.1808                 0.2210                 0.2857
 IR Inten    --      2.6221                13.6444                12.2355

                     13                     14                     15
                      A                      A                      A
 Frequencies --    438.6148               462.8447               474.8667
 Red. masses --      3.7556                 3.3797                 2.6656
 Frc consts  --      0.4257                 0.4266                 0.3541
 IR Inten    --      4.0983                 0.6833                 1.2585

                     16                     17                     18
                      A                      A                      A
 Frequencies --    540.3864               553.0941               654.6489
 Red. masses --      2.2497                 1.7930                 4.4177
 Frc consts  --      0.3871                 0.3232                 1.1155
 IR Inten    --      2.5273                 3.7944                14.9075

                     19                     20                     21
                      A                      A                      A
 Frequencies --    693.3970               788.7023               826.5394
 Red. masses --      2.7352                 2.1187                 2.1889
 Frc consts  --      0.7748                 0.7765                 0.8810
 IR Inten    --     10.2252                 7.4077                 1.0309

                     22                     23                     24
                      A                      A                      A
 Frequencies --    832.5666               873.5612               884.5185
 Red. masses --      2.4683                 1.4060                 2.4532
 Frc consts  --      1.0080                 0.6322                 1.1308
 IR Inten    --      9.4941                10.9492                15.0634

                     25                     26                     27
                      A                      A                      A
 Frequencies --    893.8629               902.1364               931.2042
 Red. masses --      2.3156                 2.3882                 1.8784
 Frc consts  --      1.0901                 1.1452                 0.9597
 IR Inten    --     23.5293                44.3197                46.0961

                     28                     29                     30
                      A                      A                      A
 Frequencies --    940.1815               954.1901               997.2799
 Red. masses --      2.5228                 1.9904                 1.4949
 Frc consts  --      1.3139                 1.0677                 0.8760
 IR Inten    --     41.0906                45.3041                 6.0805

                     31                     32                     33
                      A                      A                      A
 Frequencies --   1013.7351              1032.7075              1049.3449
 Red. masses --      2.3215                 2.1928                 1.7473
 Frc consts  --      1.4056                 1.3778                 1.1336
 IR Inten    --     24.8913                51.2656                56.2344

                     34                     35                     36
                      A                      A                      A
 Frequencies --   1070.2101              1077.0075              1119.0645
 Red. masses --      2.1328                 1.5581                 2.7012
 Frc consts  --      1.4392                 1.0648                 1.9930
 IR Inten    --     20.0626               119.4774               257.6015

                     37                     38                     39
                      A                      A                      A
 Frequencies --   1142.9629              1151.8607              1159.2437
 Red. masses --      3.2535                 2.4283                 3.3356
 Frc consts  --      2.5042                 1.8983                 2.6411
 IR Inten    --     14.1788                79.8938               129.6846

                     40                     41                     42
                      A                      A                      A
 Frequencies --   1187.3704              1198.3398              1211.4195
 Red. masses --      2.6130                 2.8501                 1.5044
 Frc consts  --      2.1705                 2.4114                 1.3008
 IR Inten    --     34.8471               147.4580                68.1745

                     43                     44                     45
                      A                      A                      A
 Frequencies --   1221.8640              1245.7542              1255.2025
 Red. masses --      1.4212                 1.6449                 1.6882
 Frc consts  --      1.2502                 1.5040                 1.5671
 IR Inten    --     30.0363                29.5187                25.0093

                     46                     47                     48
                      A                      A                      A
 Frequencies --   1301.3510              1305.2890              1320.0966
 Red. masses --      1.2372                 1.1763                 1.1966
 Frc consts  --      1.2345                 1.1808                 1.2286
 IR Inten    --     15.2259                28.5424                11.0374

                     49                     50                     51
                      A                      A                      A
 Frequencies --   1340.1098              1342.8161              1366.8400
 Red. masses --      1.3197                 1.2662                 1.3122
 Frc consts  --      1.3964                 1.3452                 1.4444
 IR Inten    --     10.5500                 7.7363                 4.6042

                     52                     53                     54
                      A                      A                      A
 Frequencies --   1378.7350              1384.2296              1388.7493
 Red. masses --      1.3342                 1.4025                 1.5008
 Frc consts  --      1.4943                 1.5833                 1.7054
 IR Inten    --     37.3924                 3.9944                12.1663

                     55                     56                     57
                      A                      A                      A
 Frequencies --   1395.5324              1400.6264              1403.1378
 Red. masses --      1.4262                 1.3153                 1.3279
 Frc consts  --      1.6364                 1.5203                 1.5403
 IR Inten    --      1.6063                 9.4645                 4.7601

                     58                     59                     60
                      A                      A                      A
 Frequencies --   1415.0749              1423.4596              1433.9683
 Red. masses --      1.2929                 1.2912                 1.3380
 Frc consts  --      1.5254                 1.5414                 1.6210
 IR Inten    --      3.5492                10.5994                 9.7207

                     61                     62                     63
                      A                      A                      A
 Frequencies --   1439.3539              1478.8426              1481.4095
 Red. masses --      1.3308                 1.0914                 1.0962
 Frc consts  --      1.6245                 1.4063                 1.4174
 IR Inten    --     13.4758                 5.2678                 1.2340

                     64                     65                     66
                      A                      A                      A
 Frequencies --   1485.0321              1496.4378              1502.2741
 Red. masses --      1.0845                 1.1105                 1.0980
 Frc consts  --      1.4091                 1.4652                 1.4600
 IR Inten    --     10.5182                13.8902                12.3113

                     67                     68                     69
                      A                      A                      A
 Frequencies --   1507.4830              1516.9913              1526.9219
 Red. masses --      1.0904                 1.0955                 1.0904
 Frc consts  --      1.4600                 1.4853                 1.4978
 IR Inten    --     10.6972                 3.9335                 8.0726

                     70                     71                     72
                      A                      A                      A
 Frequencies --   3020.4735              3043.8093              3060.2106
 Red. masses --      1.0707                 1.0689                 1.0777
 Frc consts  --      5.7552                 5.8350                 5.9465
 IR Inten    --     68.2464                51.9952                 1.9462

                     73                     74                     75
                      A                      A                      A
 Frequencies --   3067.4938              3068.2605              3070.8963
 Red. masses --      1.0613                 1.0625                 1.0614
 Frc consts  --      5.8836                 5.8932                 5.8976
 IR Inten    --     39.1482                45.1076                 3.8870

                     76                     77                     78
                      A                      A                      A
 Frequencies --   3073.1474              3075.6838              3091.3440
 Red. masses --      1.0698                 1.0711                 1.0816
 Frc consts  --      5.9526                 5.9697                 6.0902
 IR Inten    --     51.0264                63.1011                96.1014

                     79                     80                     81
                      A                      A                      A
 Frequencies --   3095.9691              3115.9875              3118.6393
 Red. masses --      1.0690                 1.0993                 1.1010
 Frc consts  --      6.0372                 6.2889                 6.3090
 IR Inten    --     42.5031                38.2085                28.4964

                     82                     83                     84
                      A                      A                      A
 Frequencies --   3122.0999              3133.7237              3134.9954
 Red. masses --      1.1040                 1.1000                 1.0981
 Frc consts  --      6.3401                 6.3644                 6.3586
 IR Inten    --     52.8340                75.7147                 2.3549

                     85                     86                     87
                      A                      A                      A
 Frequencies --   3136.3159              3146.2800              3152.8812
 Red. masses --      1.0986                 1.0919                 1.0959
 Frc consts  --      6.3668                 6.3686                 6.4183
 IR Inten    --     56.8336                32.3632                37.1888

 - Thermochemistry -
 -------------------
 Temperature   298.150 Kelvin.  Pressure   1.00000 Atm.
 Atom     1 has atomic number  6 and mass  12.00000

 Molecular mass:   186.12559 amu.
 Principal axes and moments of inertia in atomic units:
                           1         2         3
     Eigenvalues --  1111.852963759.406954106.88407
           X            0.99975   0.02170  -0.00525
           Y           -0.02173   0.99974  -0.00657
           Z            0.00511   0.00668   0.99996
 This molecule is an asymmetric top.
 Rotational symmetry number  1.
 Warning -- assumption of classical behavior for rotation
           may cause significant error
 Rotational temperatures (Kelvin)      0.07790     0.02304     0.02109
 Rotational constants (GHZ):           1.62318     0.48006     0.43944
    1 imaginary frequencies ignored.
 Zero-point vibrational energy     737621.4 (Joules/Mol)
                                  176.29574 (Kcal/Mol)
 Warning -- explicit consideration of  16 degrees of freedom as
           vibrations may cause significant error
 Vibrational temperatures:    121.13   171.82   209.56   265.54   336.82
          (Kelvin)            374.59   411.04   471.65   505.36   530.01
                              600.86   631.07   665.93   683.23   777.50
                              795.78   941.89   997.64  1134.77  1189.21
                             1197.88  1256.86  1272.62  1286.07  1297.97
                             1339.80  1352.71  1372.87  1434.86  1458.54
                             1485.84  1509.77  1539.79  1549.57  1610.08
                             1644.47  1657.27  1667.89  1708.36  1724.14
                             1742.96  1757.99  1792.36  1805.96  1872.35
                             1878.02  1899.32  1928.12  1932.01  1966.58
                             1983.69  1991.60  1998.10  2007.86  2015.19
                             2018.80  2035.98  2048.04  2063.16  2070.91
                             2127.72  2131.42  2136.63  2153.04  2161.44
                             2168.93  2182.61  2196.90  4345.79  4379.36
                             4402.96  4413.44  4414.54  4418.33  4421.57
                             4425.22  4447.75  4454.41  4483.21  4487.03
                             4492.01  4508.73  4510.56  4512.46  4526.80
                             4536.29

 Zero-point correction=                           0.280945 (Hartree/Particle)
 Thermal correction to Energy=                    0.291805
 Thermal correction to Enthalpy=                  0.292749
 Thermal correction to Gibbs Free Energy=         0.244724
 Sum of electronic and zero-point Energies=           -617.201252
 Sum of electronic and thermal Energies=              -617.190392
 Sum of electronic and thermal Enthalpies=            -617.189448
 Sum of electronic and thermal Free Energies=         -617.237473

                     E (Thermal)             CV                S
                      KCal/Mol        Cal/Mol-Kelvin    Cal/Mol-Kelvin
 Total                  183.110             44.979            101.077
 Electronic               0.000              0.000              0.000
 Translational            0.889              2.981             41.570
 Rotational               0.889              2.981             31.218
 Vibrational            181.333             39.017             28.289
 Vibration     1          0.601              1.960              3.791
 Vibration     2          0.609              1.933              3.110
 Vibration     3          0.617              1.907              2.728
 Vibration     4          0.631              1.861              2.282
 Vibration     5          0.654              1.789              1.847
 Vibration     6          0.668              1.745              1.659
 Vibration     7          0.683              1.700              1.499
 Vibration     8          0.711              1.620              1.271
 Vibration     9          0.728              1.573              1.161
 Vibration    10          0.741              1.537              1.087
 Vibration    11          0.781              1.432              0.900
 Vibration    12          0.799              1.386              0.831
 Vibration    13          0.820              1.332              0.758
 Vibration    14          0.832              1.306              0.724
 Vibration    15          0.895              1.161              0.564
 Vibration    16          0.908              1.133              0.538

 Optimization completed.
    -- Stationary point found.
 Normal termination of Gaussian 16 at Sun Nov  4 23:09:58 2018.
