 Gaussian 16, Revision A.03,
 Gaussian 16:  ES64L-G16RevA.03 25-Dec-2016

 ----------------------------------------------------------------------
 #M062X/6-311++G(2d,2p) opt=ModRedundant freq=noraman SCRF=(Solvent=Wat
 er)
 ----------------------------------------------------------------------

 ---------------------------
 D_1a_4e_D_PHI.inp_extract_5
 ---------------------------
 Symbolic Z-matrix:
 Charge =  0 Multiplicity = 1

 SCF Done:  E(RM062X) =  -617.493430993     A.U. after   12 cycles
 SCF Done:  E(RM062X) =  -617.494862643     A.U. after   11 cycles
 SCF Done:  E(RM062X) =  -617.495167302     A.U. after   11 cycles
 SCF Done:  E(RM062X) =  -617.495466655     A.U. after   10 cycles
 SCF Done:  E(RM062X) =  -617.495496082     A.U. after    9 cycles
 SCF Done:  E(RM062X) =  -617.495500344     A.U. after    9 cycles
 SCF Done:  E(RM062X) =  -617.495501141     A.U. after    8 cycles
 Optimization completed.
    -- Stationary point found.
 Normal termination of Gaussian 16 at Sun Nov  4 22:01:57 2018.

 ----------------------------------------------------------------------
 #N Geom=AllCheck Guess=TCheck SCRF=Check GenChk RM062X/6-311++G(2d,2p)
  Freq
 ----------------------------------------------------------------------

 Structure from the checkpoint file:  "D_1a_4e_D_PHI.inp_extract_5.chk"
 ---------------------------
 D_1a_4e_D_PHI.inp_extract_5
 ---------------------------
 Charge =  0 Multiplicity = 1

                         Standard orientation:
 ---------------------------------------------------------------------
 Center     Atomic      Atomic             Coordinates (Angstroms)
 Number     Number       Type             X           Y           Z
 ---------------------------------------------------------------------
      1          6           0        3.441274    0.833440    0.056054
      2          6           0        1.130298   -0.855361    0.352380
      3          6           0       -1.061668   -0.415826   -0.680512
      4          6           0        2.138625    1.431112    0.585880
      5          8           0       -2.860313    1.209031   -0.704630
      6          6           0       -3.512758    0.570504    0.385344
      7          6           0        3.138703   -0.371795   -0.818192
      8          6           0       -1.724422   -1.180267    0.458902
      9          6           0       -1.454981    1.060158   -0.627733
     10          6           0       -3.232407   -0.923540    0.397074
     11          8           0        2.354238   -1.345930   -0.122974
     12          8           0        0.353433   -0.533401   -0.788491
     13          6           0        1.337340    0.334729    1.282321
     14          1           0        4.068169    0.519656    0.894145
     15          1           0        4.005259    1.563969   -0.524573
     16          1           0       -1.452356   -0.814474   -1.620411
     17          1           0        2.338689    2.250724    1.274870
     18          1           0        1.557105    1.837238   -0.245237
     19          1           0       -4.574866    0.773721    0.267983
     20          1           0       -3.173787    1.024399    1.324827
     21          1           0        2.609955   -0.061853   -1.722370
     22          1           0        4.048551   -0.890511   -1.111362
     23          1           0       -1.346660   -0.830724    1.423236
     24          1           0       -1.510038   -2.246515    0.383290
     25          1           0       -3.650001   -1.369711   -0.507647
     26          1           0       -3.730557   -1.381149    1.251692
     27          1           0        1.884777   -0.028701    2.154956
     28          1           0        0.374124    0.699284    1.636345
     29          1           0        0.679837   -1.691125    0.886589
     30          1           0       -1.080192    1.523336    0.292646
     31          1           0       -1.026892    1.585904   -1.479332
 ---------------------------------------------------------------------

 SCF Done:  E(RM062X) =  -617.495501141     A.U. after    1 cycles

 The electronic state is 1-A.
 Alpha  occ. eigenvalues --  -19.63228 -19.63146 -19.63006 -10.63710 -10.59191
 Alpha  occ. eigenvalues --  -10.58186 -10.58060 -10.57773 -10.53811 -10.53538
 Alpha  occ. eigenvalues --  -10.53133 -10.53092 -10.52925  -1.19941  -1.16767
 Alpha  occ. eigenvalues --   -1.13318  -0.90599  -0.90178  -0.87375  -0.85001
 Alpha  occ. eigenvalues --   -0.75395  -0.73714  -0.73386  -0.71019  -0.66846
 Alpha  occ. eigenvalues --   -0.62931  -0.60171  -0.58351  -0.56885  -0.55854
 Alpha  occ. eigenvalues --   -0.55245  -0.53298  -0.52181  -0.50948  -0.49443
 Alpha  occ. eigenvalues --   -0.49166  -0.47378  -0.46328  -0.45790  -0.44776
 Alpha  occ. eigenvalues --   -0.44281  -0.43394  -0.40875  -0.40211  -0.39354
 Alpha  occ. eigenvalues --   -0.38179  -0.38045  -0.36810  -0.35525  -0.33206
 Alpha  occ. eigenvalues --   -0.31316
 Alpha virt. eigenvalues --   -0.00077   0.00762   0.00807   0.01047   0.02246
 Alpha virt. eigenvalues --    0.02499   0.02721   0.03496   0.03555   0.04492
 Alpha virt. eigenvalues --    0.04694   0.04849   0.05837   0.05973   0.07264

 Mulliken charges:
               1
     1  C   -0.390532
     2  C   -0.168949
     3  C   -0.224925
     4  C   -0.219705
     5  O   -0.338430
     6  C   -0.165777
     7  C   -0.229073
     8  C   -0.247670
     9  C   -0.232506
    10  C   -0.400515
    11  O   -0.318978
    12  O   -0.375566
    13  C   -0.236884
    14  H    0.167258
    15  H    0.168823
    16  H    0.252965
    17  H    0.186753
    18  H    0.152621
    19  H    0.220364
    20  H    0.131106
    21  H    0.176841
    22  H    0.218260
    23  H    0.214792
    24  H    0.191458
    25  H    0.178172
    26  H    0.170753
    27  H    0.213481
    28  H    0.188028
    29  H    0.298737
    30  H    0.211570
    31  H    0.207530
 Sum of Mulliken charges =  -0.00000

 Dipole moment (field-independent basis, Debye):
    X=             -0.6082    Y=              0.6280    Z=              2.7699  Tot=              2.9046
 Quadrupole moment (field-independent basis, Debye-Ang):
   XX=            -77.2801   YY=            -84.2988   ZZ=            -79.9040
   XY=             10.8679   XZ=             -5.1681   YZ=              0.2575

  Exact polarizability: 178.821   2.631 153.386  -3.377  -1.157 151.498
 Approx polarizability: 150.368   0.544 139.333  -0.693  -1.901 142.867

                      1                      2                      3
                      A                      A                      A
 Frequencies --     48.0521                72.9482               109.0719
 Red. masses --      4.2289                 3.3563                 3.1486
 Frc consts  --      0.0058                 0.0105                 0.0221
 IR Inten    --      0.8656                 2.4102                 1.1956

                      4                      5                      6
                      A                      A                      A
 Frequencies --    164.3833               180.3613               237.3226
 Red. masses --      3.3159                 3.2076                 2.9254
 Frc consts  --      0.0528                 0.0615                 0.0971
 IR Inten    --      5.2526                 0.2103                 1.4142

                      7                      8                      9
                      A                      A                      A
 Frequencies --    260.0012               304.2040               327.9136
 Red. masses --      2.0853                 2.5684                 3.3753
 Frc consts  --      0.0831                 0.1400                 0.2138
 IR Inten    --      5.6887                 0.9209                 9.9552

                     10                     11                     12
                      A                      A                      A
 Frequencies --    364.0865               393.6420               425.5489
 Red. masses --      2.2389                 3.2147                 2.2005
 Frc consts  --      0.1749                 0.2935                 0.2348
 IR Inten    --     10.3240                20.8197                 3.7152

                     13                     14                     15
                      A                      A                      A
 Frequencies --    444.4214               460.6890               485.4520
 Red. masses --      3.4102                 3.8841                 2.8225
 Frc consts  --      0.3968                 0.4857                 0.3919
 IR Inten    --      3.8881                 1.5950                 5.6020

                     16                     17                     18
                      A                      A                      A
 Frequencies --    529.8776               547.4613               639.8045
 Red. masses --      2.2855                 2.0171                 2.8208
 Frc consts  --      0.3781                 0.3562                 0.6803
 IR Inten    --      0.3932                 5.2856                 6.4924

                     19                     20                     21
                      A                      A                      A
 Frequencies --    712.3060               822.2222               834.8281
 Red. masses --      3.1475                 2.1230                 1.7429
 Frc consts  --      0.9409                 0.8456                 0.7157
 IR Inten    --      6.8306                 1.2089                 1.3227

                     22                     23                     24
                      A                      A                      A
 Frequencies --    845.5033               880.1343               887.2348
 Red. masses --      2.8054                 1.4382                 2.3278
 Frc consts  --      1.1816                 0.6564                 1.0796
 IR Inten    --      2.1299                15.9185                 2.4090

                     25                     26                     27
                      A                      A                      A
 Frequencies --    894.7844               906.5118               930.8036
 Red. masses --      2.2935                 2.2868                 1.7588
 Frc consts  --      1.0819                 1.1072                 0.8978
 IR Inten    --     14.7242                41.6763                22.1179

                     28                     29                     30
                      A                      A                      A
 Frequencies --    949.6025               979.5499               992.5444
 Red. masses --      2.3377                 2.0753                 1.6986
 Frc consts  --      1.2420                 1.1733                 0.9859
 IR Inten    --     38.4329                55.2870                10.7473

                     31                     32                     33
                      A                      A                      A
 Frequencies --   1011.0394              1039.4022              1056.3111
 Red. masses --      1.9765                 2.1650                 1.7198
 Frc consts  --      1.1903                 1.3781                 1.1306
 IR Inten    --     37.8421                60.9962                15.0668

                     34                     35                     36
                      A                      A                      A
 Frequencies --   1068.2120              1077.6586              1128.6552
 Red. masses --      1.5567                 2.2628                 3.0987
 Frc consts  --      1.0465                 1.5483                 2.3257
 IR Inten    --     73.0027                10.6447               218.9595

                     37                     38                     39
                      A                      A                      A
 Frequencies --   1149.2657              1150.5025              1155.2190
 Red. masses --      2.8344                 2.3975                 3.2574
 Frc consts  --      2.2057                 1.8697                 2.5612
 IR Inten    --     66.1114               167.2141               111.4067

                     40                     41                     42
                      A                      A                      A
 Frequencies --   1179.3324              1190.8260              1210.6753
 Red. masses --      3.2106                 2.2178                 1.4706
 Frc consts  --      2.6310                 1.8530                 1.2700
 IR Inten    --    116.4485                 4.4428               104.1924

                     43                     44                     45
                      A                      A                      A
 Frequencies --   1216.3574              1242.9397              1257.6443
 Red. masses --      1.4977                 1.8689                 1.6036
 Frc consts  --      1.3056                 1.7011                 1.4944
 IR Inten    --      9.5705                44.6379                36.4762

                     46                     47                     48
                      A                      A                      A
 Frequencies --   1285.7378              1308.7144              1320.1522
 Red. masses --      1.2136                 1.2087                 1.1521
 Frc consts  --      1.1821                 1.2197                 1.1831
 IR Inten    --     14.6742                21.9835                 3.3712

                     49                     50                     51
                      A                      A                      A
 Frequencies --   1331.9575              1349.0507              1358.7981
 Red. masses --      1.2655                 1.2794                 1.3504
 Frc consts  --      1.3228                 1.3718                 1.4690
 IR Inten    --     12.2159                 5.6511                11.5227

                     52                     53                     54
                      A                      A                      A
 Frequencies --   1368.3327              1381.0098              1385.1654
 Red. masses --      1.2349                 1.5026                 1.4374
 Frc consts  --      1.3623                 1.6885                 1.6249
 IR Inten    --      6.7709                16.2569                 4.5461

                     55                     56                     57
                      A                      A                      A
 Frequencies --   1390.6856              1403.3471              1406.0374
 Red. masses --      1.6060                 1.3626                 1.2367
 Frc consts  --      1.8300                 1.5811                 1.4405
 IR Inten    --     10.2002                 7.7459                18.8696

                     58                     59                     60
                      A                      A                      A
 Frequencies --   1408.7583              1417.5451              1429.8176
 Red. masses --      1.3640                 1.4469                 1.3846
 Frc consts  --      1.5949                 1.7130                 1.6678
 IR Inten    --      6.5621                 3.7406                 4.0356

                     61                     62                     63
                      A                      A                      A
 Frequencies --   1442.5680              1479.8602              1482.3899
 Red. masses --      1.3158                 1.0989                 1.0931
 Frc consts  --      1.6133                 1.4179                 1.4152
 IR Inten    --     15.6734                 4.1227                 7.4433

                     64                     65                     66
                      A                      A                      A
 Frequencies --   1486.6619              1496.4943              1498.9842
 Red. masses --      1.0852                 1.1002                 1.1099
 Frc consts  --      1.4132                 1.4516                 1.4694
 IR Inten    --      9.5116                 7.6882                12.8780

                     67                     68                     69
                      A                      A                      A
 Frequencies --   1502.4469              1512.8949              1515.4275
 Red. masses --      1.0958                 1.0928                 1.1025
 Frc consts  --      1.4573                 1.4737                 1.4918
 IR Inten    --      3.1201                 5.2835                10.9693

                     70                     71                     72
                      A                      A                      A
 Frequencies --   3018.0089              3034.3126              3057.8066
 Red. masses --      1.0708                 1.0678                 1.0741
 Frc consts  --      5.7462                 5.7922                 5.9172
 IR Inten    --     67.2740                54.5975                11.5074

                     73                     74                     75
                      A                      A                      A
 Frequencies --   3060.4954              3066.4543              3067.0694
 Red. masses --      1.0674                 1.0711                 1.0652
 Frc consts  --      5.8906                 5.9343                 5.9039
 IR Inten    --     29.8843                49.9150                39.7214

                     76                     77                     78
                      A                      A                      A
 Frequencies --   3070.1234              3073.0493              3075.6447
 Red. masses --      1.0628                 1.0619                 1.0649
 Frc consts  --      5.9020                 5.9087                 5.9353
 IR Inten    --     49.6238                52.2006                32.0512

                     79                     80                     81
                      A                      A                      A
 Frequencies --   3110.3536              3114.3035              3115.4880
 Red. masses --      1.0868                 1.0975                 1.0992
 Frc consts  --      6.1949                 6.2715                 6.2862
 IR Inten    --     72.8544                29.6456                29.1199

                     82                     83                     84
                      A                      A                      A
 Frequencies --   3119.3155              3122.7593              3129.6103
 Red. masses --      1.1016                 1.1034                 1.0960
 Frc consts  --      6.3152                 6.3394                 6.3249
 IR Inten    --     58.8648                55.8722                23.4799

                     85                     86                     87
                      A                      A                      A
 Frequencies --   3134.0002              3136.4004              3136.4524
 Red. masses --      1.0974                 1.0998                 1.0969
 Frc consts  --      6.3504                 6.3742                 6.3575
 IR Inten    --     75.6638                63.2715                 8.2411

 - Thermochemistry -
 -------------------
 Temperature   298.150 Kelvin.  Pressure   1.00000 Atm.
 Atom     1 has atomic number  6 and mass  12.00000

 Molecular mass:   186.12559 amu.
 Principal axes and moments of inertia in atomic units:
                           1         2         3
     Eigenvalues --   977.507734111.706824418.85127
           X            0.99978   0.01988  -0.00684
           Y           -0.01984   0.99978   0.00676
           Z            0.00697  -0.00662   0.99995
 This molecule is an asymmetric top.
 Rotational symmetry number  1.
 Warning -- assumption of classical behavior for rotation
           may cause significant error
 Rotational temperatures (Kelvin)      0.08861     0.02107     0.01960
 Rotational constants (GHZ):           1.84627     0.43893     0.40842
 Zero-point vibrational energy     737915.2 (Joules/Mol)
                                  176.36597 (Kcal/Mol)
 Warning -- explicit consideration of  17 degrees of freedom as
           vibrations may cause significant error
 Vibrational temperatures:     69.14   104.96   156.93   236.51   259.50
          (Kelvin)            341.45   374.08   437.68   471.79   523.84
                              566.36   612.27   639.42   662.83   698.46
                              762.38   787.67   920.54  1024.85  1182.99
                             1201.13  1216.49  1266.32  1276.53  1287.40
                             1304.27  1339.22  1366.27  1409.35  1428.05
                             1454.66  1495.47  1519.80  1536.92  1550.51
                             1623.88  1653.54  1655.32  1662.10  1696.80
                             1713.33  1741.89  1750.07  1788.31  1809.47
                             1849.89  1882.95  1899.40  1916.39  1940.98
                             1955.01  1968.73  1986.97  1992.94  2000.89
                             2019.10  2022.97  2026.89  2039.53  2057.19
                             2075.53  2129.19  2132.83  2138.97  2153.12
                             2156.70  2161.69  2176.72  2180.36  4342.24
                             4365.70  4399.50  4403.37  4411.94  4412.83
                             4417.22  4421.43  4425.17  4475.11  4480.79
                             4482.49  4488.00  4492.95  4502.81  4509.13
                             4512.58  4512.66

 Zero-point correction=                           0.281057 (Hartree/Particle)
 Thermal correction to Energy=                    0.292675
 Thermal correction to Enthalpy=                  0.293619
 Thermal correction to Gibbs Free Energy=         0.243302
 Sum of electronic and zero-point Energies=           -617.214444
 Sum of electronic and thermal Energies=              -617.202827
 Sum of electronic and thermal Enthalpies=            -617.201882
 Sum of electronic and thermal Free Energies=         -617.252199

                     E (Thermal)             CV                S
                      KCal/Mol        Cal/Mol-Kelvin    Cal/Mol-Kelvin
 Total                  183.656             46.698            105.900
 Electronic               0.000              0.000              0.000
 Translational            0.889              2.981             41.570
 Rotational               0.889              2.981             31.252
 Vibrational            181.879             40.736             33.078
 Vibration     1          0.595              1.978              4.896
 Vibration     2          0.599              1.967              4.072
 Vibration     3          0.606              1.942              3.285
 Vibration     4          0.623              1.886              2.499
 Vibration     5          0.629              1.866              2.325
 Vibration     6          0.656              1.784              1.823
 Vibration     7          0.668              1.746              1.662
 Vibration     8          0.695              1.666              1.394
 Vibration     9          0.711              1.620              1.270
 Vibration    10          0.738              1.546              1.105
 Vibration    11          0.761              1.484              0.986
 Vibration    12          0.787              1.415              0.873
 Vibration    13          0.804              1.373              0.813
 Vibration    14          0.819              1.337              0.764
 Vibration    15          0.842              1.282              0.696
 Vibration    16          0.885              1.184              0.587
 Vibration    17          0.903              1.145              0.549

 Optimization completed.
    -- Stationary point found.
 Normal termination of Gaussian 16 at Sun Nov  4 22:57:17 2018.
