 Gaussian 16, Revision A.03,
 Gaussian 16:  ES64L-G16RevA.03 25-Dec-2016

 ----------------------------------------------------------------------
 #M062X/6-311++G(2d,2p) opt=ModRedundant freq=noraman SCRF=(Solvent=Wat
 er)
 ----------------------------------------------------------------------

 ----------------------------
 D_1a_4e_D_PHI.inp_extract_23
 ----------------------------
 Symbolic Z-matrix:
 Charge =  0 Multiplicity = 1

 SCF Done:  E(RM062X) =  -617.502852342     A.U. after   12 cycles
 SCF Done:  E(RM062X) =  -617.504394256     A.U. after   10 cycles
 SCF Done:  E(RM062X) =  -617.504504225     A.U. after   10 cycles
 SCF Done:  E(RM062X) =  -617.504530048     A.U. after   10 cycles
 SCF Done:  E(RM062X) =  -617.504540563     A.U. after   10 cycles
 SCF Done:  E(RM062X) =  -617.504545543     A.U. after    9 cycles
 SCF Done:  E(RM062X) =  -617.504545957     A.U. after    7 cycles
 Optimization completed.
    -- Stationary point found.
 Normal termination of Gaussian 16 at Sun Nov  4 22:00:32 2018.

 ----------------------------------------------------------------------
 #N Geom=AllCheck Guess=TCheck SCRF=Check GenChk RM062X/6-311++G(2d,2p)
  Freq
 ----------------------------------------------------------------------

 Structure from the checkpoint file:  "D_1a_4e_D_PHI.inp_extract_23.chk"
 ----------------------------
 D_1a_4e_D_PHI.inp_extract_23
 ----------------------------
 Charge =  0 Multiplicity = 1

                         Standard orientation:
 ---------------------------------------------------------------------
 Center     Atomic      Atomic             Coordinates (Angstroms)
 Number     Number       Type             X           Y           Z
 ---------------------------------------------------------------------
      1          6           0        3.540644   -0.815207   -0.027690
      2          6           0        1.230195    0.844622    0.392807
      3          6           0       -0.991200    0.048904    0.120319
      4          6           0        3.142523    0.199225   -1.098407
      5          8           0       -2.914229   -1.398566   -0.170147
      6          6           0       -3.803497   -0.291727   -0.255318
      7          6           0        2.313419   -1.237896    0.762058
      8          6           0       -1.891898    1.276423    0.093490
      9          6           0       -1.630762   -1.081751   -0.673073
     10          6           0       -3.295747    0.887376    0.558859
     11          8           0        1.651801   -0.111433    1.340927
     12          8           0        0.271011    0.304380   -0.482765
     13          6           0        2.389541    1.357195   -0.444993
     14          1           0        4.265834   -0.366299    0.655426
     15          1           0        4.004722   -1.696340   -0.471759
     16          1           0       -0.845031   -0.291016    1.149883
     17          1           0        4.020340    0.572364   -1.624723
     18          1           0        2.500576   -0.283969   -1.837529
     19          1           0       -4.764877   -0.645106    0.111005
     20          1           0       -3.916809   -0.001334   -1.306990
     21          1           0        1.614006   -1.775623    0.116014
     22          1           0        2.575844   -1.882961    1.597430
     23          1           0       -1.930865    1.644324   -0.935610
     24          1           0       -1.482135    2.073099    0.714647
     25          1           0       -3.275678    0.606752    1.614083
     26          1           0       -3.983241    1.726726    0.454020
     27          1           0        3.059707    1.904637    0.220146
     28          1           0        2.005828    2.057708   -1.185549
     29          1           0        0.787057    1.645584    0.987812
     30          1           0       -1.698826   -0.783662   -1.727257
     31          1           0       -1.024411   -1.982921   -0.603483
 ---------------------------------------------------------------------

 SCF Done:  E(RM062X) =  -617.504545957     A.U. after    1 cycles

 The electronic state is 1-A.
 Alpha  occ. eigenvalues --  -19.63372 -19.63184 -19.62964 -10.63551 -10.58642
 Alpha  occ. eigenvalues --  -10.58130 -10.58088 -10.57756 -10.53328 -10.53226
 Alpha  occ. eigenvalues --  -10.53096 -10.53012 -10.52873  -1.20185  -1.16695
 Alpha  occ. eigenvalues --   -1.13480  -0.91022  -0.89741  -0.87489  -0.84446
 Alpha  occ. eigenvalues --   -0.74882  -0.73890  -0.72792  -0.70966  -0.65731
 Alpha  occ. eigenvalues --   -0.64171  -0.60108  -0.58562  -0.57511  -0.55659
 Alpha  occ. eigenvalues --   -0.54401  -0.53281  -0.51863  -0.50696  -0.49780
 Alpha  occ. eigenvalues --   -0.48488  -0.47727  -0.46095  -0.45609  -0.44586
 Alpha  occ. eigenvalues --   -0.43911  -0.42176  -0.41234  -0.40531  -0.39532
 Alpha  occ. eigenvalues --   -0.38310  -0.38117  -0.36363  -0.35042  -0.33414
 Alpha  occ. eigenvalues --   -0.32187
 Alpha virt. eigenvalues --   -0.00049   0.00771   0.00882   0.01017   0.02159
 Alpha virt. eigenvalues --    0.02453   0.02622   0.03439   0.03687   0.04346
 Alpha virt. eigenvalues --    0.04524   0.04758   0.05496   0.05814   0.07292

 Mulliken charges:
               1
     1  C   -0.359963
     2  C   -0.072631
     3  C   -0.254745
     4  C   -0.301634
     5  O   -0.330749
     6  C   -0.183805
     7  C   -0.126497
     8  C   -0.163592
     9  C   -0.277851
    10  C   -0.375026
    11  O   -0.283005
    12  O   -0.262922
    13  C   -0.377085
    14  H    0.165348
    15  H    0.168615
    16  H    0.288977
    17  H    0.184225
    18  H    0.179560
    19  H    0.207598
    20  H    0.136721
    21  H    0.114022
    22  H    0.203411
    23  H    0.215312
    24  H    0.134304
    25  H    0.164049
    26  H    0.184108
    27  H    0.184877
    28  H    0.178694
    29  H    0.266799
    30  H    0.187851
    31  H    0.205035
 Sum of Mulliken charges =  -0.00000

 Dipole moment (field-independent basis, Debye):
    X=              0.5147    Y=              1.9357    Z=             -0.8274  Tot=              2.1671
 Quadrupole moment (field-independent basis, Debye-Ang):
   XX=            -72.7699   YY=            -79.5731   ZZ=            -83.4515
   XY=             -7.7986   XZ=             -1.5008   YZ=              0.6622

  Exact polarizability: 175.891  -3.180 158.334  -1.822  -0.418 150.776
 Approx polarizability: 146.951  -1.655 142.775  -0.256  -0.437 142.083

                      1                      2                      3
                      A                      A                      A
 Frequencies --     28.6677                50.9556                81.5075
 Red. masses --      3.4440                 4.2112                 3.4068
 Frc consts  --      0.0017                 0.0064                 0.0133
 IR Inten    --      1.1782                 0.7024                 0.7226

                      4                      5                      6
                      A                      A                      A
 Frequencies --    145.0737               177.5144               237.1097
 Red. masses --      3.4187                 2.8925                 2.9215
 Frc consts  --      0.0424                 0.0537                 0.0968
 IR Inten    --      2.8845                 0.2211                 7.6838

                      7                      8                      9
                      A                      A                      A
 Frequencies --    246.7538               286.1058               339.0516
 Red. masses --      2.1171                 2.3450                 2.4535
 Frc consts  --      0.0759                 0.1131                 0.1662
 IR Inten    --      3.3058                 4.9191                 2.4105

                     10                     11                     12
                      A                      A                      A
 Frequencies --    376.3054               393.2366               434.3990
 Red. masses --      2.4154                 2.6007                 3.2870
 Frc consts  --      0.2015                 0.2369                 0.3654
 IR Inten    --     23.4592                10.6648                 8.2085

                     13                     14                     15
                      A                      A                      A
 Frequencies --    459.9041               463.1987               478.5039
 Red. masses --      4.2088                 3.1950                 2.3170
 Frc consts  --      0.5245                 0.4039                 0.3126
 IR Inten    --      5.0465                 1.6186                 1.4493

                     16                     17                     18
                      A                      A                      A
 Frequencies --    532.1759               579.1979               606.8677
 Red. masses --      2.2538                 2.5572                 2.5212
 Frc consts  --      0.3761                 0.5054                 0.5471
 IR Inten    --      2.2658                14.6306                 1.8493

                     19                     20                     21
                      A                      A                      A
 Frequencies --    726.3025               829.5599               833.0809
 Red. masses --      3.0119                 2.2147                 1.5316
 Frc consts  --      0.9361                 0.8980                 0.6263
 IR Inten    --      4.8206                 0.8908                 3.0943

                     22                     23                     24
                      A                      A                      A
 Frequencies --    841.4360               876.8756               891.8483
 Red. masses --      3.3415                 1.4061                 2.3502
 Frc consts  --      1.3939                 0.6370                 1.1014
 IR Inten    --      9.6365                12.0662                11.6234

                     25                     26                     27
                      A                      A                      A
 Frequencies --    898.8304               907.7195               932.0918
 Red. masses --      2.4311                 2.4597                 1.6302
 Frc consts  --      1.1572                 1.1941                 0.8345
 IR Inten    --     25.7171                20.5822                23.7499

                     28                     29                     30
                      A                      A                      A
 Frequencies --    943.5615               981.2373               999.8923
 Red. masses --      2.1907                 2.3669                 1.4165
 Frc consts  --      1.1491                 1.3427                 0.8344
 IR Inten    --     40.3146                65.6123                13.7350

                     31                     32                     33
                      A                      A                      A
 Frequencies --   1031.6633              1045.2055              1056.3055
 Red. masses --      2.2031                 2.3535                 1.7223
 Frc consts  --      1.3815                 1.5148                 1.1322
 IR Inten    --     21.9960               101.3783                29.1025

                     34                     35                     36
                      A                      A                      A
 Frequencies --   1064.2049              1071.7884              1113.1845
 Red. masses --      1.5073                 2.3024                 4.2883
 Frc consts  --      1.0058                 1.5583                 3.1309
 IR Inten    --     63.7402                17.4188               288.2944

                     37                     38                     39
                      A                      A                      A
 Frequencies --   1149.3425              1154.6370              1168.1193
 Red. masses --      2.5614                 2.8539                 3.6986
 Frc consts  --      1.9936                 2.2417                 2.9734
 IR Inten    --     31.9815               123.1124               164.3921

                     40                     41                     42
                      A                      A                      A
 Frequencies --   1174.8062              1191.1801              1211.0869
 Red. masses --      2.5211                 2.4949                 1.4504
 Frc consts  --      2.0501                 2.0857                 1.2534
 IR Inten    --     21.8815                49.3080                24.8139

                     43                     44                     45
                      A                      A                      A
 Frequencies --   1214.9083              1233.8485              1248.7822
 Red. masses --      1.4419                 1.6318                 1.4920
 Frc consts  --      1.2539                 1.4636                 1.3708
 IR Inten    --     14.0579                59.0844                29.9956

                     46                     47                     48
                      A                      A                      A
 Frequencies --   1289.1737              1304.6318              1319.1853
 Red. masses --      1.2191                 1.1825                 1.1502
 Frc consts  --      1.1938                 1.1859                 1.1794
 IR Inten    --     18.8160                17.1288                 6.8739

                     49                     50                     51
                      A                      A                      A
 Frequencies --   1330.7752              1341.3896              1352.7356
 Red. masses --      1.2818                 1.2422                 1.2435
 Frc consts  --      1.3374                 1.3169                 1.3407
 IR Inten    --      8.7729                 5.3823                19.7423

                     52                     53                     54
                      A                      A                      A
 Frequencies --   1361.6360              1381.0430              1387.8893
 Red. masses --      1.3176                 1.4231                 1.4686
 Frc consts  --      1.4394                 1.5992                 1.6668
 IR Inten    --      2.6698                 7.4000                 1.2010

                     55                     56                     57
                      A                      A                      A
 Frequencies --   1392.0139              1400.5246              1401.8309
 Red. masses --      1.6378                 1.4133                 1.3607
 Frc consts  --      1.8699                 1.6333                 1.5755
 IR Inten    --      6.1379                21.8804                 3.0505

                     58                     59                     60
                      A                      A                      A
 Frequencies --   1407.3809              1417.4649              1431.3894
 Red. masses --      1.4139                 1.4012                 1.4024
 Frc consts  --      1.6500                 1.6587                 1.6930
 IR Inten    --     22.3939                10.8555                17.2371

                     61                     62                     63
                      A                      A                      A
 Frequencies --   1439.5203              1475.7698              1480.6702
 Red. masses --      1.4480                 1.1070                 1.0931
 Frc consts  --      1.7679                 1.4205                 1.4119
 IR Inten    --      3.0683                 5.1050                 7.7654

                     64                     65                     66
                      A                      A                      A
 Frequencies --   1482.0335              1494.7390              1495.4398
 Red. masses --      1.0861                 1.1112                 1.1079
 Frc consts  --      1.4055                 1.4627                 1.4598
 IR Inten    --      8.4090                10.9658                13.6971

                     67                     68                     69
                      A                      A                      A
 Frequencies --   1502.0091              1509.3653              1514.5178
 Red. masses --      1.0886                 1.0938                 1.1019
 Frc consts  --      1.4469                 1.4681                 1.4892
 IR Inten    --      0.6584                 3.9558                 9.3398

                     70                     71                     72
                      A                      A                      A
 Frequencies --   3016.5410              3020.3611              3055.3798
 Red. masses --      1.0693                 1.0704                 1.0699
 Frc consts  --      5.7327                 5.7532                 5.8847
 IR Inten    --     38.2211                93.4684                 6.2043

                     73                     74                     75
                      A                      A                      A
 Frequencies --   3056.0451              3063.0052              3066.1071
 Red. masses --      1.0690                 1.0624                 1.0763
 Frc consts  --      5.8820                 5.8724                 5.9615
 IR Inten    --     40.5209                51.3619                40.3084

                     76                     77                     78
                      A                      A                      A
 Frequencies --   3070.9924              3073.0186              3076.1477
 Red. masses --      1.0627                 1.0650                 1.0684
 Frc consts  --      5.9049                 5.9257                 5.9564
 IR Inten    --     55.0853                25.1529                 7.8823

                     79                     80                     81
                      A                      A                      A
 Frequencies --   3085.9451              3112.5346              3113.9168
 Red. masses --      1.0781                 1.0983                 1.0990
 Frc consts  --      6.0493                 6.2689                 6.2784
 IR Inten    --     69.8856                48.7134                41.9098

                     82                     83                     84
                      A                      A                      A
 Frequencies --   3119.8053              3121.2692              3131.1482
 Red. masses --      1.1020                 1.1025                 1.1032
 Frc consts  --      6.3196                 6.3281                 6.3726
 IR Inten    --     61.6209                53.2169                33.5586

                     85                     86                     87
                      A                      A                      A
 Frequencies --   3131.2644              3133.5240              3135.6331
 Red. masses --      1.0946                 1.0957                 1.0987
 Frc consts  --      6.3235                 6.3389                 6.3650
 IR Inten    --     55.8951                38.9634                41.6747

 - Thermochemistry -
 -------------------
 Temperature   298.150 Kelvin.  Pressure   1.00000 Atm.
 Atom     1 has atomic number  6 and mass  12.00000

 Molecular mass:   186.12559 amu.
 Principal axes and moments of inertia in atomic units:
                           1         2         3
     Eigenvalues --   935.658264423.895324707.86002
           X            0.99991  -0.01176  -0.00572
           Y            0.01179   0.99992   0.00541
           Z            0.00566  -0.00547   0.99997
 This molecule is an asymmetric top.
 Rotational symmetry number  1.
 Warning -- assumption of classical behavior for rotation
           may cause significant error
 Rotational temperatures (Kelvin)      0.09257     0.01958     0.01840
 Rotational constants (GHZ):           1.92885     0.40795     0.38335
 Zero-point vibrational energy     736922.3 (Joules/Mol)
                                  176.12867 (Kcal/Mol)
 Warning -- explicit consideration of  18 degrees of freedom as
           vibrations may cause significant error
 Vibrational temperatures:     41.25    73.31   117.27   208.73   255.40
          (Kelvin)            341.15   355.02   411.64   487.82   541.42
                              565.78   625.00   661.70   666.44   688.46
                              765.68   833.34   873.15  1044.99  1193.55
                             1198.62  1210.64  1261.63  1283.17  1293.22
                             1306.01  1341.07  1357.57  1411.78  1438.62
                             1484.33  1503.82  1519.79  1531.15  1542.06
                             1601.62  1653.65  1661.27  1680.66  1690.28
                             1713.84  1742.48  1747.98  1775.23  1796.72
                             1854.83  1877.07  1898.01  1914.69  1929.96
                             1946.28  1959.09  1987.01  1996.86  2002.80
                             2015.04  2016.92  2024.91  2039.42  2059.45
                             2071.15  2123.30  2130.35  2132.32  2150.60
                             2151.60  2161.06  2171.64  2179.05  4340.13
                             4345.63  4396.01  4396.97  4406.98  4411.44
                             4418.47  4421.39  4425.89  4439.99  4478.24
                             4480.23  4488.70  4490.81  4505.02  4505.19
                             4508.44  4511.48

 Zero-point correction=                           0.280679 (Hartree/Particle)
 Thermal correction to Energy=                    0.292462
 Thermal correction to Enthalpy=                  0.293406
 Thermal correction to Gibbs Free Energy=         0.241829
 Sum of electronic and zero-point Energies=           -617.223867
 Sum of electronic and thermal Energies=              -617.212084
 Sum of electronic and thermal Enthalpies=            -617.211140
 Sum of electronic and thermal Free Energies=         -617.262717

                     E (Thermal)             CV                S
                      KCal/Mol        Cal/Mol-Kelvin    Cal/Mol-Kelvin
 Total                  183.522             46.690            108.553
 Electronic               0.000              0.000              0.000
 Translational            0.889              2.981             41.570
 Rotational               0.889              2.981             31.344
 Vibrational            181.745             40.729             35.639
 Vibration     1          0.593              1.984              5.920
 Vibration     2          0.595              1.977              4.780
 Vibration     3          0.600              1.962              3.854
 Vibration     4          0.616              1.908              2.736
 Vibration     5          0.628              1.870              2.354
 Vibration     6          0.656              1.784              1.824
 Vibration     7          0.661              1.768              1.754
 Vibration     8          0.684              1.699              1.497
 Vibration     9          0.719              1.597              1.217
 Vibration    10          0.747              1.521              1.054
 Vibration    11          0.760              1.485              0.988
 Vibration    12          0.795              1.395              0.844
 Vibration    13          0.818              1.339              0.766
 Vibration    14          0.821              1.332              0.757
 Vibration    15          0.835              1.298              0.714
 Vibration    16          0.887              1.179              0.582
 Vibration    17          0.936              1.076              0.487
 Vibration    18          0.966              1.017              0.438

 Optimization completed.
    -- Stationary point found.
 Normal termination of Gaussian 16 at Sun Nov  4 22:53:41 2018.
