 Gaussian 16, Revision A.03,
 Gaussian 16:  ES64L-G16RevA.03 25-Dec-2016

 ----------------------------------------------------------------------
 #M062X/6-311++G(2d,2p) opt=ModRedundant freq=noraman SCRF=(Solvent=Wat
 er)
 ----------------------------------------------------------------------

 ----------------------------
 D_1a_4e_D_PHI.inp_extract_18
 ----------------------------
 Symbolic Z-matrix:
 Charge =  0 Multiplicity = 1

 SCF Done:  E(RM062X) =  -617.480079312     A.U. after   12 cycles
 SCF Done:  E(RM062X) =  -617.475982256     A.U. after   12 cycles
 SCF Done:  E(RM062X) =  -617.480991150     A.U. after   11 cycles
 SCF Done:  E(RM062X) =  -617.481832950     A.U. after   11 cycles
 SCF Done:  E(RM062X) =  -617.482125822     A.U. after   10 cycles
 SCF Done:  E(RM062X) =  -617.482314811     A.U. after    9 cycles
 SCF Done:  E(RM062X) =  -617.482323509     A.U. after    9 cycles
 SCF Done:  E(RM062X) =  -617.482327174     A.U. after    8 cycles
 SCF Done:  E(RM062X) =  -617.482327486     A.U. after    6 cycles
 Optimization completed.
    -- Stationary point found.
 Normal termination of Gaussian 16 at Sun Nov  4 22:12:02 2018.

 ----------------------------------------------------------------------
 #N Geom=AllCheck Guess=TCheck SCRF=Check GenChk RM062X/6-311++G(2d,2p)
  Freq
 ----------------------------------------------------------------------

 Structure from the checkpoint file:  "D_1a_4e_D_PHI.inp_extract_18.chk"
 ----------------------------
 D_1a_4e_D_PHI.inp_extract_18
 ----------------------------
 Charge =  0 Multiplicity = 1

                         Standard orientation:
 ---------------------------------------------------------------------
 Center     Atomic      Atomic             Coordinates (Angstroms)
 Number     Number       Type             X           Y           Z
 ---------------------------------------------------------------------
      1          6           0       -2.596905    1.295971    0.778697
      2          6           0       -1.487980   -1.200055   -0.187593
      3          6           0        0.972442   -0.671591   -0.691081
      4          6           0       -2.576365    1.013363   -0.719834
      5          8           0        2.883998   -0.678870    0.752722
      6          6           0        3.136549    0.701799    0.522340
      7          6           0       -1.417364    0.611174    1.442864
      8          6           0        1.194776    0.791391   -1.060069
      9          6           0        1.491769   -0.958244    0.720872
     10          6           0        2.677163    1.124538   -0.864903
     11          8           0       -1.317408   -0.783973    1.136228
     12          8           0       -0.319897   -1.164238   -1.012386
     13          6           0       -2.624569   -0.495646   -0.914516
     14          1           0       -3.529335    0.922263    1.207641
     15          1           0       -2.539243    2.363791    0.990168
     16          1           0        1.624074   -1.256975   -1.346725
     17          1           0       -3.421443    1.486459   -1.217942
     18          1           0       -1.666133    1.420893   -1.166759
     19          1           0        4.208538    0.842101    0.644098
     20          1           0        2.620456    1.294595    1.287994
     21          1           0       -0.493042    1.116692    1.160216
     22          1           0       -1.494913    0.651423    2.527343
     23          1           0        0.589423    1.448131   -0.434826
     24          1           0        0.891107    0.953403   -2.094804
     25          1           0        3.274419    0.593924   -1.609380
     26          1           0        2.854920    2.191665   -0.999417
     27          1           0       -3.563383   -0.879830   -0.509097
     28          1           0       -2.576229   -0.778843   -1.964342
     29          1           0       -1.724104   -2.260922   -0.094465
     30          1           0        0.990559   -0.357418    1.479833
     31          1           0        1.363690   -2.010897    0.967305
 ---------------------------------------------------------------------

 SCF Done:  E(RM062X) =  -617.482327486     A.U. after    1 cycles

 The electronic state is 1-A.
 Alpha  occ. eigenvalues --  -19.63852 -19.62965 -19.62335 -10.64000 -10.59070
 Alpha  occ. eigenvalues --  -10.58393 -10.58038 -10.57891 -10.53276 -10.53255
 Alpha  occ. eigenvalues --  -10.53211 -10.53113 -10.53049  -1.19357  -1.16450
 Alpha  occ. eigenvalues --   -1.13232  -0.91061  -0.90344  -0.87522  -0.84521
 Alpha  occ. eigenvalues --   -0.75355  -0.74178  -0.73663  -0.70433  -0.67249
 Alpha  occ. eigenvalues --   -0.62480  -0.59674  -0.58950  -0.56716  -0.56269
 Alpha  occ. eigenvalues --   -0.53583  -0.53347  -0.51656  -0.51429  -0.50284
 Alpha  occ. eigenvalues --   -0.49405  -0.46943  -0.46157  -0.45586  -0.45208
 Alpha  occ. eigenvalues --   -0.44108  -0.42141  -0.41151  -0.40232  -0.39420
 Alpha  occ. eigenvalues --   -0.38762  -0.37628  -0.36465  -0.34832  -0.33212
 Alpha  occ. eigenvalues --   -0.31073
 Alpha virt. eigenvalues --   -0.00193   0.00720   0.00792   0.01033   0.02329
 Alpha virt. eigenvalues --    0.02633   0.02708   0.03183   0.03324   0.04837
 Alpha virt. eigenvalues --    0.05104   0.05350   0.05712   0.06047   0.07022

 Mulliken charges:
               1
     1  C   -0.378709
     2  C   -0.071117
     3  C   -0.492428
     4  C   -0.321513
     5  O   -0.335359
     6  C   -0.204632
     7  C   -0.227109
     8  C   -0.098112
     9  C   -0.261679
    10  C   -0.343104
    11  O   -0.267333
    12  O   -0.267427
    13  C   -0.279530
    14  H    0.176497
    15  H    0.183333
    16  H    0.249194
    17  H    0.211951
    18  H    0.152233
    19  H    0.222584
    20  H    0.125363
    21  H    0.167923
    22  H    0.216113
    23  H    0.212432
    24  H    0.202234
    25  H    0.180283
    26  H    0.166535
    27  H    0.191531
    28  H    0.185082
    29  H    0.233144
    30  H    0.251220
    31  H    0.220399
 Sum of Mulliken charges =  -0.00000

 Dipole moment (field-independent basis, Debye):
    X=             -1.8594    Y=              3.7195    Z=             -0.2300  Tot=              4.1647
 Quadrupole moment (field-independent basis, Debye-Ang):
   XX=            -79.0929   YY=            -79.5846   ZZ=            -82.3319
   XY=              4.0114   XZ=             -2.5396   YZ=              1.9192

  Exact polarizability: 172.127   3.640 158.156  -0.297   1.915 155.757
 Approx polarizability: 147.632   2.282 144.421  -1.882   1.901 142.118

 ******    1 imaginary frequencies (negative Signs) ******

                      1                      2                      3
                      A                      A                      A
 Frequencies --    -86.0750                83.1454               108.0904
 Red. masses --      4.7376                 3.0471                 3.1800
 Frc consts  --      0.0207                 0.0124                 0.0219
 IR Inten    --      6.7036                 0.3038                 0.9509

                      4                      5                      6
                      A                      A                      A
 Frequencies --    129.8876               194.8785               210.9450
 Red. masses --      3.3981                 3.5564                 3.2326
 Frc consts  --      0.0338                 0.0796                 0.0848
 IR Inten    --      3.2445                 2.8520                 5.5356

                      7                      8                      9
                      A                      A                      A
 Frequencies --    256.0912               284.4655               304.0997
 Red. masses --      1.9691                 3.7153                 2.4983
 Frc consts  --      0.0761                 0.1771                 0.1361
 IR Inten    --      3.4061                10.4521                 6.0161

                     10                     11                     12
                      A                      A                      A
 Frequencies --    359.3807               372.3704               425.1858
 Red. masses --      2.3184                 2.5914                 2.6110
 Frc consts  --      0.1764                 0.2117                 0.2781
 IR Inten    --      2.0101                14.8746                 4.9595

                     13                     14                     15
                      A                      A                      A
 Frequencies --    431.8684               454.9651               471.7454
 Red. masses --      3.4254                 3.0789                 2.6084
 Frc consts  --      0.3764                 0.3755                 0.3420
 IR Inten    --      5.3760                 0.2429                 0.6461

                     16                     17                     18
                      A                      A                      A
 Frequencies --    531.3510               559.2625               640.0454
 Red. masses --      2.3114                 1.9510                 4.2346
 Frc consts  --      0.3845                 0.3595                 1.0221
 IR Inten    --      0.6241                11.5287                 6.8543

                     19                     20                     21
                      A                      A                      A
 Frequencies --    699.7955               797.8039               823.8715
 Red. masses --      3.1388                 2.1830                 2.1762
 Frc consts  --      0.9056                 0.8186                 0.8703
 IR Inten    --      4.0255                 6.6155                 0.3799

                     22                     23                     24
                      A                      A                      A
 Frequencies --    844.6705               872.5680               874.3756
 Red. masses --      2.1779                 1.5967                 2.0761
 Frc consts  --      0.9155                 0.7163                 0.9352
 IR Inten    --      6.8642                10.1135                17.7445

                     25                     26                     27
                      A                      A                      A
 Frequencies --    891.0436               902.3278               923.8181
 Red. masses --      2.2864                 2.4944                 2.0156
 Frc consts  --      1.0695                 1.1966                 1.0135
 IR Inten    --     14.6749                38.7493                40.4219

                     28                     29                     30
                      A                      A                      A
 Frequencies --    940.0222               954.3731               989.7621
 Red. masses --      2.3055                 1.6744                 1.5629
 Frc consts  --      1.2003                 0.8986                 0.9021
 IR Inten    --     38.2348                25.5532                10.9720

                     31                     32                     33
                      A                      A                      A
 Frequencies --   1014.5018              1040.8064              1047.7851
 Red. masses --      2.3566                 2.3040                 1.7765
 Frc consts  --      1.4291                 1.4705                 1.1491
 IR Inten    --     41.8700                34.2613                64.0661

                     34                     35                     36
                      A                      A                      A
 Frequencies --   1066.5328              1076.0775              1116.1740
 Red. masses --      1.5010                 2.1000                 2.6091
 Frc consts  --      1.0060                 1.4327                 1.9152
 IR Inten    --     57.2874                15.6283               134.1488

                     37                     38                     39
                      A                      A                      A
 Frequencies --   1136.0153              1152.0356              1158.0370
 Red. masses --      3.0936                 2.7394                 3.0574
 Frc consts  --      2.3522                 2.1421                 2.4158
 IR Inten    --    174.0102                83.6122                33.3619

                     40                     41                     42
                      A                      A                      A
 Frequencies --   1177.0330              1200.6731              1204.0518
 Red. masses --      2.5955                 2.2908                 1.4747
 Frc consts  --      2.1186                 1.9458                 1.2597
 IR Inten    --     71.2487               222.6741                13.0466

                     43                     44                     45
                      A                      A                      A
 Frequencies --   1209.1829              1241.8300              1253.1725
 Red. masses --      1.3652                 1.7002                 1.9138
 Frc consts  --      1.1761                 1.5448                 1.7708
 IR Inten    --     13.0237               105.0788                48.2328

                     46                     47                     48
                      A                      A                      A
 Frequencies --   1291.5055              1300.5698              1322.6656
 Red. masses --      1.2204                 1.1730                 1.1789
 Frc consts  --      1.1993                 1.1690                 1.2152
 IR Inten    --     19.6241                16.6938                14.6179

                     49                     50                     51
                      A                      A                      A
 Frequencies --   1336.3085              1341.1089              1359.9844
 Red. masses --      1.3036                 1.2960                 1.3660
 Frc consts  --      1.3716                 1.3733                 1.4885
 IR Inten    --     20.2287                10.3149                 4.1031

                     52                     53                     54
                      A                      A                      A
 Frequencies --   1373.5467              1382.8427              1389.9297
 Red. masses --      1.3379                 1.4158                 1.4981
 Frc consts  --      1.4871                 1.5952                 1.7052
 IR Inten    --     40.2569                 2.1326                 6.0979

                     55                     56                     57
                      A                      A                      A
 Frequencies --   1392.9298              1403.6861              1412.2850
 Red. masses --      1.6902                 1.3248                 1.3416
 Frc consts  --      1.9321                 1.5380                 1.5765
 IR Inten    --     17.4908                 6.4421                 2.1302

                     58                     59                     60
                      A                      A                      A
 Frequencies --   1420.5723              1425.9452              1435.1124
 Red. masses --      1.2860                 1.3167                 1.2367
 Frc consts  --      1.5291                 1.5774                 1.5006
 IR Inten    --      3.9945                 9.4643                 3.8347

                     61                     62                     63
                      A                      A                      A
 Frequencies --   1454.6420              1476.8713              1481.6646
 Red. masses --      1.2753                 1.0988                 1.0924
 Frc consts  --      1.5900                 1.4120                 1.4129
 IR Inten    --     12.0578                 5.6116                 3.8154

                     64                     65                     66
                      A                      A                      A
 Frequencies --   1487.2157              1492.8461              1498.4584
 Red. masses --      1.0900                 1.1122                 1.0886
 Frc consts  --      1.4204                 1.4604                 1.4402
 IR Inten    --     12.6317                19.5240                 1.4936

                     67                     68                     69
                      A                      A                      A
 Frequencies --   1501.6618              1513.7660              1525.8888
 Red. masses --      1.1078                 1.1026                 1.0957
 Frc consts  --      1.4719                 1.4886                 1.5031
 IR Inten    --      3.2845                 6.3124                 6.6388

                     70                     71                     72
                      A                      A                      A
 Frequencies --   3015.9440              3047.4512              3064.7777
 Red. masses --      1.0707                 1.0834                 1.0683
 Frc consts  --      5.7379                 5.9280                 5.9120
 IR Inten    --     72.2220                28.6031                18.3705

                     73                     74                     75
                      A                      A                      A
 Frequencies --   3067.6836              3069.3382              3072.9783
 Red. masses --      1.0676                 1.0628                 1.0648
 Frc consts  --      5.9197                 5.8990                 5.9240
 IR Inten    --     13.6613                33.7978                26.4376

                     76                     77                     78
                      A                      A                      A
 Frequencies --   3076.6108              3082.3360              3091.1209
 Red. masses --      1.0617                 1.0793                 1.0591
 Frc consts  --      5.9212                 6.0418                 5.9623
 IR Inten    --     91.6446               113.3187                56.6717

                     79                     80                     81
                      A                      A                      A
 Frequencies --   3094.8864              3116.8717              3118.2844
 Red. masses --      1.0625                 1.1005                 1.0962
 Frc consts  --      5.9960                 6.2991                 6.2802
 IR Inten    --      7.4779                32.9837                35.0258

                     82                     83                     84
                      A                      A                      A
 Frequencies --   3121.1539              3128.3658              3131.6839
 Red. masses --      1.1017                 1.0997                 1.0951
 Frc consts  --      6.3233                 6.3412                 6.3277
 IR Inten    --     54.1629                90.8234                58.4762

                     85                     86                     87
                      A                      A                      A
 Frequencies --   3135.2352              3140.2333              3145.8551
 Red. masses --      1.0987                 1.1040                 1.1071
 Frc consts  --      6.3633                 6.4141                 6.4553
 IR Inten    --     24.8226                 9.4698                54.5843

 - Thermochemistry -
 -------------------
 Temperature   298.150 Kelvin.  Pressure   1.00000 Atm.
 Atom     1 has atomic number  6 and mass  12.00000

 Molecular mass:   186.12559 amu.
 Principal axes and moments of inertia in atomic units:
                           1         2         3
     Eigenvalues --  1219.490983535.072853574.24004
           X            0.99999   0.00382  -0.00205
           Y           -0.00367   0.99786   0.06528
           Z            0.00229  -0.06527   0.99786
 This molecule is an asymmetric top.
 Rotational symmetry number  1.
 Warning -- assumption of classical behavior for rotation
           may cause significant error
 Rotational temperatures (Kelvin)      0.07102     0.02450     0.02423
 Rotational constants (GHZ):           1.47991     0.51052     0.50493
    1 imaginary frequencies ignored.
 Zero-point vibrational energy     736713.8 (Joules/Mol)
                                  176.07883 (Kcal/Mol)
 Warning -- explicit consideration of  16 degrees of freedom as
           vibrations may cause significant error
 Vibrational temperatures:    119.63   155.52   186.88   280.39   303.50
          (Kelvin)            368.46   409.28   437.53   517.07   535.76
                              611.75   621.36   654.59   678.74   764.50
                              804.65   920.88  1006.85  1147.86  1185.37
                             1215.29  1255.43  1258.03  1282.01  1298.25
                             1329.17  1352.48  1373.13  1424.05  1459.64
                             1497.49  1507.53  1534.50  1548.24  1605.93
                             1634.47  1657.52  1666.16  1693.49  1727.50
                             1732.36  1739.74  1786.72  1803.04  1858.19
                             1871.23  1903.02  1922.65  1929.56  1956.71
                             1976.23  1989.60  1999.80  2004.12  2019.59
                             2031.96  2043.89  2051.62  2064.81  2092.91
                             2124.89  2131.78  2139.77  2147.87  2155.95
                             2160.56  2177.97  2195.41  4339.27  4384.60
                             4409.53  4413.71  4416.09  4421.33  4426.56
                             4434.79  4447.43  4452.85  4484.48  4486.52
                             4490.64  4501.02  4505.79  4510.90  4518.10
                             4526.18

 Zero-point correction=                           0.280599 (Hartree/Particle)
 Thermal correction to Energy=                    0.291570
 Thermal correction to Enthalpy=                  0.292514
 Thermal correction to Gibbs Free Energy=         0.244212
 Sum of electronic and zero-point Energies=           -617.201728
 Sum of electronic and thermal Energies=              -617.190758
 Sum of electronic and thermal Enthalpies=            -617.189813
 Sum of electronic and thermal Free Energies=         -617.238115

                     E (Thermal)             CV                S
                      KCal/Mol        Cal/Mol-Kelvin    Cal/Mol-Kelvin
 Total                  182.963             45.145            101.659
 Electronic               0.000              0.000              0.000
 Translational            0.889              2.981             41.570
 Rotational               0.889              2.981             31.111
 Vibrational            181.185             39.183             28.978
 Vibration     1          0.600              1.961              3.815
 Vibration     2          0.606              1.943              3.303
 Vibration     3          0.612              1.923              2.948
 Vibration     4          0.636              1.847              2.181
 Vibration     5          0.643              1.824              2.035
 Vibration     6          0.666              1.752              1.688
 Vibration     7          0.683              1.702              1.507
 Vibration     8          0.695              1.666              1.394
 Vibration     9          0.734              1.556              1.125
 Vibration    10          0.744              1.529              1.070
 Vibration    11          0.787              1.415              0.875
 Vibration    12          0.793              1.401              0.853
 Vibration    13          0.813              1.350              0.781
 Vibration    14          0.829              1.313              0.733
 Vibration    15          0.886              1.181              0.584
 Vibration    16          0.915              1.119              0.525

 Optimization completed.
    -- Stationary point found.
 Normal termination of Gaussian 16 at Sun Nov  4 23:14:48 2018.
