 Gaussian 16, Revision A.03,
 Gaussian 16:  ES64L-G16RevA.03 25-Dec-2016

 ----------------------------------------------------------------------
 #M062X/6-311++G(2d,2p) opt=ModRedundant freq=noraman SCRF=(Solvent=Wat
 er)
 ----------------------------------------------------------------------

 ---------------------------
 D_1a_4e_D_PHI.inp_extract_3
 ---------------------------
 Symbolic Z-matrix:
 Charge =  0 Multiplicity = 1

 SCF Done:  E(RM062X) =  -617.495502250     A.U. after   12 cycles
 SCF Done:  E(RM062X) =  -617.497072975     A.U. after   11 cycles
 SCF Done:  E(RM062X) =  -617.497244217     A.U. after   11 cycles
 SCF Done:  E(RM062X) =  -617.497323081     A.U. after    9 cycles
 SCF Done:  E(RM062X) =  -617.497325856     A.U. after    9 cycles
 SCF Done:  E(RM062X) =  -617.497327077     A.U. after    8 cycles
 Optimization completed.
    -- Stationary point found.
 Normal termination of Gaussian 16 at Sun Nov  4 21:56:37 2018.

 ----------------------------------------------------------------------
 #N Geom=AllCheck Guess=TCheck SCRF=Check GenChk RM062X/6-311++G(2d,2p)
  Freq
 ----------------------------------------------------------------------

 Structure from the checkpoint file:  "D_1a_4e_D_PHI.inp_extract_3.chk"
 ---------------------------
 D_1a_4e_D_PHI.inp_extract_3
 ---------------------------
 Charge =  0 Multiplicity = 1

                         Standard orientation:
 ---------------------------------------------------------------------
 Center     Atomic      Atomic             Coordinates (Angstroms)
 Number     Number       Type             X           Y           Z
 ---------------------------------------------------------------------
      1          6           0        3.761126    0.082065   -0.168477
      2          6           0        0.985135   -0.139675    0.572735
      3          6           0       -1.095260   -0.141882   -0.677863
      4          6           0        2.845093    1.294291   -0.323130
      5          8           0       -2.999570    1.285933   -0.249933
      6          6           0       -3.676081    0.258260    0.464268
      7          6           0        2.940505   -1.191880   -0.271226
      8          6           0       -1.785484   -1.312365    0.013265
      9          6           0       -1.594929    1.185672   -0.109763
     10          6           0       -3.301006   -1.116431   -0.064560
     11          8           0        1.884292   -1.212838    0.691508
     12          8           0        0.323519   -0.235714   -0.675359
     13          6           0        1.706397    1.198643    0.689961
     14          1           0        4.253881    0.112358    0.806284
     15          1           0        4.538011    0.072392   -0.933527
     16          1           0       -1.364990   -0.160526   -1.735613
     17          1           0        3.398511    2.221784   -0.181330
     18          1           0        2.432052    1.312006   -1.333855
     19          1           0       -4.739224    0.454661    0.345198
     20          1           0       -3.425279    0.334773    1.529438
     21          1           0        2.517303   -1.290992   -1.273994
     22          1           0        3.540976   -2.074247   -0.062340
     23          1           0       -1.486092   -1.359726    1.063139
     24          1           0       -1.481675   -2.246421   -0.459080
     25          1           0       -3.634196   -1.198064   -1.101254
     26          1           0       -3.819328   -1.883776    0.510399
     27          1           0        2.105054    1.272872    1.704156
     28          1           0        0.987061    2.005847    0.556260
     29          1           0        0.278946   -0.270306    1.391265
     30          1           0       -1.323561    1.278750    0.949880
     31          1           0       -1.156355    2.019386   -0.656018
 ---------------------------------------------------------------------

 SCF Done:  E(RM062X) =  -617.497327077     A.U. after    1 cycles

 The electronic state is 1-A.
 Alpha  occ. eigenvalues --  -19.63356 -19.63166 -19.63039 -10.63692 -10.59170
 Alpha  occ. eigenvalues --  -10.58415 -10.58197 -10.57762 -10.53427 -10.53376
 Alpha  occ. eigenvalues --  -10.53066 -10.52998 -10.52858  -1.19932  -1.16861
 Alpha  occ. eigenvalues --   -1.13517  -0.90712  -0.89883  -0.87186  -0.85095
 Alpha  occ. eigenvalues --   -0.74763  -0.74562  -0.72984  -0.71292  -0.66810
 Alpha  occ. eigenvalues --   -0.62873  -0.60496  -0.58664  -0.56897  -0.55540
 Alpha  occ. eigenvalues --   -0.54456  -0.53352  -0.52524  -0.50959  -0.49994
 Alpha  occ. eigenvalues --   -0.48867  -0.46734  -0.46127  -0.45627  -0.44945
 Alpha  occ. eigenvalues --   -0.44314  -0.43263  -0.41125  -0.40389  -0.39298
 Alpha  occ. eigenvalues --   -0.38434  -0.38079  -0.37604  -0.34328  -0.33258
 Alpha  occ. eigenvalues --   -0.31726
 Alpha virt. eigenvalues --   -0.00066   0.00663   0.00778   0.01171   0.02181
 Alpha virt. eigenvalues --    0.02465   0.02629   0.03407   0.03645   0.04320
 Alpha virt. eigenvalues --    0.04655   0.04781   0.05429   0.06093   0.07246

 Mulliken charges:
               1
     1  C   -0.415717
     2  C   -0.204582
     3  C   -0.414715
     4  C   -0.305538
     5  O   -0.349497
     6  C   -0.140131
     7  C   -0.147555
     8  C   -0.027231
     9  C   -0.283970
    10  C   -0.375351
    11  O   -0.295790
    12  O   -0.306744
    13  C   -0.223489
    14  H    0.164956
    15  H    0.167867
    16  H    0.251019
    17  H    0.177503
    18  H    0.188244
    19  H    0.214621
    20  H    0.129123
    21  H    0.164876
    22  H    0.214008
    23  H    0.184712
    24  H    0.174507
    25  H    0.174798
    26  H    0.170192
    27  H    0.196323
    28  H    0.161138
    29  H    0.332614
    30  H    0.207737
    31  H    0.216073
 Sum of Mulliken charges =  -0.00000

 Dipole moment (field-independent basis, Debye):
    X=              0.0589    Y=              0.1493    Z=              0.9075  Tot=              0.9216
 Quadrupole moment (field-independent basis, Debye-Ang):
   XX=            -74.2387   YY=            -83.4865   ZZ=            -80.3513
   XY=              8.7328   XZ=             -4.7735   YZ=              2.9062

  Exact polarizability: 179.284   0.771 156.471  -1.199   0.813 148.512
 Approx polarizability: 149.484  -0.590 139.858   0.281  -0.864 142.624

                      1                      2                      3
                      A                      A                      A
 Frequencies --     36.2216                80.5370                86.0709
 Red. masses --      4.4164                 3.4430                 3.2048
 Frc consts  --      0.0034                 0.0132                 0.0140
 IR Inten    --      1.9302                 2.1231                 2.0227

                      4                      5                      6
                      A                      A                      A
 Frequencies --    130.8689               205.0556               225.5841
 Red. masses --      3.2638                 2.6773                 3.6608
 Frc consts  --      0.0329                 0.0663                 0.1098
 IR Inten    --      1.0151                 3.3996                 0.8034

                      7                      8                      9
                      A                      A                      A
 Frequencies --    249.0116               298.0993               309.3163
 Red. masses --      1.9874                 2.4668                 2.5897
 Frc consts  --      0.0726                 0.1292                 0.1460
 IR Inten    --      4.4828                 4.8395                 1.7911

                     10                     11                     12
                      A                      A                      A
 Frequencies --    372.8959               414.3621               427.0982
 Red. masses --      2.4033                 2.4864                 3.1979
 Frc consts  --      0.1969                 0.2515                 0.3437
 IR Inten    --     16.3600                 9.2542                12.4504

                     13                     14                     15
                      A                      A                      A
 Frequencies --    440.7456               459.8918               511.2394
 Red. masses --      3.2558                 3.4151                 2.3914
 Frc consts  --      0.3726                 0.4256                 0.3683
 IR Inten    --      2.3761                 0.2146                 4.1764

                     16                     17                     18
                      A                      A                      A
 Frequencies --    522.0669               542.9469               616.1618
 Red. masses --      3.4263                 2.1021                 2.6319
 Frc consts  --      0.5502                 0.3651                 0.5887
 IR Inten    --      6.1129                12.5902                 2.1959

                     19                     20                     21
                      A                      A                      A
 Frequencies --    712.4532               822.1521               834.2584
 Red. masses --      3.0653                 2.0777                 1.6039
 Frc consts  --      0.9167                 0.8274                 0.6577
 IR Inten    --      5.4486                 0.8439                 1.3445

                     22                     23                     24
                      A                      A                      A
 Frequencies --    848.0957               872.2446               888.8547
 Red. masses --      3.1922                 1.4063                 2.4376
 Frc consts  --      1.3528                 0.6304                 1.1347
 IR Inten    --      3.5131                 9.3874                 7.7358

                     25                     26                     27
                      A                      A                      A
 Frequencies --    899.2065               902.4998               933.1021
 Red. masses --      2.2424                 2.3694                 1.8021
 Frc consts  --      1.0683                 1.1370                 0.9245
 IR Inten    --     24.0931                45.9722                26.9823

                     28                     29                     30
                      A                      A                      A
 Frequencies --    945.7006               976.4824               996.9696
 Red. masses --      2.4230                 1.8153                 1.6375
 Frc consts  --      1.2768                 1.0198                 0.9590
 IR Inten    --     40.5426                83.2695                 5.4416

                     31                     32                     33
                      A                      A                      A
 Frequencies --   1007.7559              1042.8133              1052.6943
 Red. masses --      2.1902                 2.1098                 1.7393
 Frc consts  --      1.3105                 1.3518                 1.1356
 IR Inten    --     31.8960                48.8731                23.9512

                     34                     35                     36
                      A                      A                      A
 Frequencies --   1070.3130              1075.5269              1130.9468
 Red. masses --      1.5652                 2.2093                 4.6819
 Frc consts  --      1.0564                 1.5057                 3.5282
 IR Inten    --     77.6295                10.3934               447.8563

                     37                     38                     39
                      A                      A                      A
 Frequencies --   1146.5455              1147.7404              1158.8924
 Red. masses --      1.9995                 2.7940                 3.1963
 Frc consts  --      1.5487                 2.1685                 2.5292
 IR Inten    --     33.1932                29.1586                93.9408

                     40                     41                     42
                      A                      A                      A
 Frequencies --   1170.5611              1191.7360              1210.0506
 Red. masses --      3.8548                 2.4412                 1.4151
 Frc consts  --      3.1120                 2.0427                 1.2208
 IR Inten    --     88.7949                30.4418                17.1863

                     43                     44                     45
                      A                      A                      A
 Frequencies --   1215.5297              1240.2394              1251.6619
 Red. masses --      1.4415                 1.8316                 1.5532
 Frc consts  --      1.2549                 1.6599                 1.4336
 IR Inten    --     17.0685                78.3601                21.1977

                     46                     47                     48
                      A                      A                      A
 Frequencies --   1286.0333              1309.0340              1318.0761
 Red. masses --      1.2125                 1.1815                 1.1526
 Frc consts  --      1.1815                 1.1929                 1.1799
 IR Inten    --     12.0779                24.0395                 8.3144

                     49                     50                     51
                      A                      A                      A
 Frequencies --   1335.3411              1345.1098              1358.6073
 Red. masses --      1.3284                 1.2725                 1.3455
 Frc consts  --      1.3956                 1.3565                 1.4633
 IR Inten    --      6.6522                 5.9453                 7.0453

                     52                     53                     54
                      A                      A                      A
 Frequencies --   1367.1137              1382.3351              1383.8101
 Red. masses --      1.2718                 1.4754                 1.4597
 Frc consts  --      1.4005                 1.6610                 1.6468
 IR Inten    --     10.2953                 3.8744                 7.4293

                     55                     56                     57
                      A                      A                      A
 Frequencies --   1391.1045              1398.9790              1402.9855
 Red. masses --      1.6377                 1.3633                 1.3274
 Frc consts  --      1.8673                 1.5721                 1.5394
 IR Inten    --     11.5700                 7.2583                 4.4300

                     58                     59                     60
                      A                      A                      A
 Frequencies --   1413.2660              1415.8842              1433.0033
 Red. masses --      1.2943                 1.3994                 1.4075
 Frc consts  --      1.5231                 1.6529                 1.7030
 IR Inten    --     30.2313                 7.9980                 6.7624

                     61                     62                     63
                      A                      A                      A
 Frequencies --   1438.3465              1477.3390              1482.3306
 Red. masses --      1.2703                 1.1045                 1.0921
 Frc consts  --      1.5485                 1.4203                 1.4138
 IR Inten    --     17.2504                 4.6089                 6.2051

                     64                     65                     66
                      A                      A                      A
 Frequencies --   1483.0718              1494.4661              1495.0601
 Red. masses --      1.0862                 1.1180                 1.1059
 Frc consts  --      1.4076                 1.4712                 1.4564
 IR Inten    --     10.0770                17.9874                 6.9239

                     67                     68                     69
                      A                      A                      A
 Frequencies --   1502.5881              1510.6017              1515.1054
 Red. masses --      1.0853                 1.0941                 1.1024
 Frc consts  --      1.4437                 1.4710                 1.4910
 IR Inten    --      0.3960                 3.4337                 8.1752

                     70                     71                     72
                      A                      A                      A
 Frequencies --   3016.1667              3021.1231              3060.1955
 Red. masses --      1.0686                 1.0706                 1.0683
 Frc consts  --      5.7275                 5.7573                 5.8946
 IR Inten    --     55.0238                79.5612                34.6168

                     73                     74                     75
                      A                      A                      A
 Frequencies --   3064.4410              3066.3050              3070.1878
 Red. masses --      1.0655                 1.0632                 1.0639
 Frc consts  --      5.8954                 5.8898                 5.9086
 IR Inten    --     11.3211                49.1566                21.6428

                     76                     77                     78
                      A                      A                      A
 Frequencies --   3070.6307              3074.4470              3082.4429
 Red. masses --      1.0621                 1.0620                 1.0827
 Frc consts  --      5.9000                 5.9143                 6.0608
 IR Inten    --     36.1094                36.6338                55.5820

                     79                     80                     81
                      A                      A                      A
 Frequencies --   3113.3059              3114.9233              3118.6071
 Red. masses --      1.0936                 1.0967                 1.0974
 Frc consts  --      6.2455                 6.2695                 6.2883
 IR Inten    --     62.2863                15.2058                14.1459

                     82                     83                     84
                      A                      A                      A
 Frequencies --   3119.8636              3124.0416              3127.4349
 Red. masses --      1.1013                 1.0991                 1.0966
 Frc consts  --      6.3160                 6.3199                 6.3196
 IR Inten    --     55.7321                54.7498                76.0305

                     85                     86                     87
                      A                      A                      A
 Frequencies --   3129.6033              3136.6374              3137.4470
 Red. masses --      1.1005                 1.0948                 1.0998
 Frc consts  --      6.3505                 6.3459                 6.3787
 IR Inten    --     45.5117                44.9523                42.7090

 - Thermochemistry -
 -------------------
 Temperature   298.150 Kelvin.  Pressure   1.00000 Atm.
 Atom     1 has atomic number  6 and mass  12.00000

 Molecular mass:   186.12559 amu.
 Principal axes and moments of inertia in atomic units:
                           1         2         3
     Eigenvalues --   898.612824303.668664801.48249
           X            0.99985   0.01609  -0.00640
           Y           -0.01594   0.99961   0.02299
           Z            0.00677  -0.02288   0.99972
 This molecule is an asymmetric top.
 Rotational symmetry number  1.
 Warning -- assumption of classical behavior for rotation
           may cause significant error
 Rotational temperatures (Kelvin)      0.09639     0.02013     0.01804
 Rotational constants (GHZ):           2.00836     0.41935     0.37587
 Zero-point vibrational energy     737262.1 (Joules/Mol)
                                  176.20987 (Kcal/Mol)
 Warning -- explicit consideration of  18 degrees of freedom as
           vibrations may cause significant error
 Vibrational temperatures:     52.11   115.87   123.84   188.29   295.03
          (Kelvin)            324.57   358.27   428.90   445.04   536.51
                              596.17   614.50   634.13   661.68   735.56
                              751.14   781.18   886.52  1025.06  1182.89
                             1200.31  1220.22  1254.97  1278.86  1293.76
                             1298.50  1342.53  1360.65  1404.94  1434.42
                             1449.94  1500.38  1514.59  1539.94  1547.44
                             1627.18  1649.62  1651.34  1667.39  1684.18
                             1714.64  1740.99  1748.88  1784.43  1800.86
                             1850.32  1883.41  1896.42  1921.26  1935.31
                             1954.73  1966.97  1988.87  1990.99  2001.49
                             2012.82  2018.58  2033.37  2037.14  2061.77
                             2069.46  2125.56  2132.74  2133.81  2150.20
                             2151.06  2161.89  2173.42  2179.90  4339.59
                             4346.72  4402.94  4409.05  4411.73  4417.32
                             4417.95  4423.44  4434.95  4479.35  4481.68
                             4486.98  4488.79  4494.80  4499.68  4502.80
                             4512.92  4514.09

 Zero-point correction=                           0.280808 (Hartree/Particle)
 Thermal correction to Energy=                    0.292539
 Thermal correction to Enthalpy=                  0.293483
 Thermal correction to Gibbs Free Energy=         0.242564
 Sum of electronic and zero-point Energies=           -617.216519
 Sum of electronic and thermal Energies=              -617.204788
 Sum of electronic and thermal Enthalpies=            -617.203844
 Sum of electronic and thermal Free Energies=         -617.254763

                     E (Thermal)             CV                S
                      KCal/Mol        Cal/Mol-Kelvin    Cal/Mol-Kelvin
 Total                  183.571             46.791            107.169
 Electronic               0.000              0.000              0.000
 Translational            0.889              2.981             41.570
 Rotational               0.889              2.981             31.296
 Vibrational            181.793             40.830             34.303
 Vibration     1          0.594              1.982              5.456
 Vibration     2          0.600              1.962              3.878
 Vibration     3          0.601              1.959              3.747
 Vibration     4          0.612              1.922              2.933
 Vibration     5          0.640              1.833              2.087
 Vibration     6          0.650              1.802              1.914
 Vibration     7          0.662              1.764              1.738
 Vibration     8          0.691              1.677              1.428
 Vibration     9          0.699              1.656              1.366
 Vibration    10          0.744              1.528              1.068
 Vibration    11          0.778              1.439              0.911
 Vibration    12          0.789              1.411              0.868
 Vibration    13          0.801              1.381              0.824
 Vibration    14          0.818              1.339              0.766
 Vibration    15          0.866              1.225              0.631
 Vibration    16          0.877              1.201              0.605
 Vibration    17          0.898              1.155              0.559
 Vibration    18          0.976              0.998              0.423

 Optimization completed.
    -- Stationary point found.
 Normal termination of Gaussian 16 at Sun Nov  4 22:49:56 2018.
