 Gaussian 16, Revision A.03,
 Gaussian 16:  ES64L-G16RevA.03 25-Dec-2016

 ----------------------------------------------------------------------
 #M062X/6-311++G(2d,2p) opt=ModRedundant freq=noraman SCRF=(Solvent=Wat
 er)
 ----------------------------------------------------------------------

 ---------------------------
 D_1a_4e_D_PHI.inp_extract_4
 ---------------------------
 Symbolic Z-matrix:
 Charge =  0 Multiplicity = 1

 SCF Done:  E(RM062X) =  -617.493779182     A.U. after   12 cycles
 SCF Done:  E(RM062X) =  -617.495191900     A.U. after   11 cycles
 SCF Done:  E(RM062X) =  -617.495476066     A.U. after   11 cycles
 SCF Done:  E(RM062X) =  -617.495678894     A.U. after   10 cycles
 SCF Done:  E(RM062X) =  -617.495692965     A.U. after    9 cycles
 SCF Done:  E(RM062X) =  -617.495694177     A.U. after    8 cycles
 SCF Done:  E(RM062X) =  -617.495694472     A.U. after    8 cycles
 SCF Done:  E(RM062X) =  -617.495694521     A.U. after    7 cycles
 Optimization completed.
    -- Stationary point found.
 Normal termination of Gaussian 16 at Sun Nov  4 22:04:20 2018.

 ----------------------------------------------------------------------
 #N Geom=AllCheck Guess=TCheck SCRF=Check GenChk RM062X/6-311++G(2d,2p)
  Freq
 ----------------------------------------------------------------------

 Structure from the checkpoint file:  "D_1a_4e_D_PHI.inp_extract_4.chk"
 ---------------------------
 D_1a_4e_D_PHI.inp_extract_4
 ---------------------------
 Charge =  0 Multiplicity = 1

                         Standard orientation:
 ---------------------------------------------------------------------
 Center     Atomic      Atomic             Coordinates (Angstroms)
 Number     Number       Type             X           Y           Z
 ---------------------------------------------------------------------
      1          6           0        3.712756    0.275884   -0.249964
      2          6           0        1.017681   -0.299886    0.624572
      3          6           0       -1.076338   -0.228185   -0.629570
      4          6           0        2.658151    1.379544   -0.283231
      5          8           0       -2.894174    1.324481   -0.323108
      6          6           0       -3.672738    0.370806    0.390078
      7          6           0        3.034732   -1.077682   -0.366887
      8          6           0       -1.865272   -1.326226    0.076994
      9          6           0       -1.507852    1.140255   -0.104382
     10          6           0       -3.361978   -1.044531   -0.068331
     11          8           0        2.045898   -1.256336    0.650246
     12          8           0        0.327642   -0.450931   -0.603278
     13          6           0        1.601895    1.102909    0.784194
     14          1           0        4.262983    0.320065    0.693005
     15          1           0        4.432997    0.390010   -1.060645
     16          1           0       -1.329425   -0.253080   -1.691431
     17          1           0        3.111642    2.356099   -0.117465
     18          1           0        2.183618    1.402864   -1.266683
     19          1           0       -4.713226    0.629876    0.207400
     20          1           0       -3.471904    0.473380    1.463503
     21          1           0        2.567535   -1.186648   -1.348422
     22          1           0        3.740612   -1.893484   -0.228814
     23          1           0       -1.606113   -1.347547    1.138559
     24          1           0       -1.602667   -2.294900   -0.347737
     25          1           0       -3.659173   -1.149905   -1.113812
     26          1           0       -3.947537   -1.755291    0.514831
     27          1           0        2.057212    1.149455    1.776217
     28          1           0        0.810996    1.848138    0.755311
     29          1           0        0.364852   -0.550020    1.461512
     30          1           0       -1.293231    1.227999    0.968177
     31          1           0       -0.990320    1.937932   -0.635232
 ---------------------------------------------------------------------

 SCF Done:  E(RM062X) =  -617.495694521     A.U. after    1 cycles

 The electronic state is 1-A.
 Alpha  occ. eigenvalues --  -19.63374 -19.63151 -19.63038 -10.63815 -10.59192
 Alpha  occ. eigenvalues --  -10.58486 -10.58198 -10.57751 -10.53405 -10.53329
 Alpha  occ. eigenvalues --  -10.53018 -10.52976 -10.52838  -1.19953  -1.16889
 Alpha  occ. eigenvalues --   -1.13431  -0.90597  -0.89924  -0.87152  -0.85222
 Alpha  occ. eigenvalues --   -0.74775  -0.74575  -0.72909  -0.71208  -0.66851
 Alpha  occ. eigenvalues --   -0.63004  -0.60349  -0.58609  -0.56980  -0.55754
 Alpha  occ. eigenvalues --   -0.54645  -0.53128  -0.52410  -0.50899  -0.49979
 Alpha  occ. eigenvalues --   -0.48789  -0.47003  -0.46062  -0.45587  -0.44987
 Alpha  occ. eigenvalues --   -0.44524  -0.43015  -0.41088  -0.40344  -0.39128
 Alpha  occ. eigenvalues --   -0.38509  -0.38024  -0.37725  -0.34311  -0.33212
 Alpha  occ. eigenvalues --   -0.31645
 Alpha virt. eigenvalues --   -0.00067   0.00679   0.00775   0.01177   0.02187
 Alpha virt. eigenvalues --    0.02451   0.02645   0.03407   0.03704   0.04375
 Alpha virt. eigenvalues --    0.04632   0.04748   0.05427   0.06116   0.07419

 Mulliken charges:
               1
     1  C   -0.406544
     2  C   -0.254711
     3  C   -0.352808
     4  C   -0.303999
     5  O   -0.356401
     6  C   -0.146208
     7  C   -0.176486
     8  C   -0.026777
     9  C   -0.324091
    10  C   -0.394708
    11  O   -0.296377
    12  O   -0.324900
    13  C   -0.143379
    14  H    0.165204
    15  H    0.166270
    16  H    0.249333
    17  H    0.177921
    18  H    0.182275
    19  H    0.210450
    20  H    0.130813
    21  H    0.165082
    22  H    0.216742
    23  H    0.170772
    24  H    0.177506
    25  H    0.173079
    26  H    0.171743
    27  H    0.202347
    28  H    0.172665
    29  H    0.329093
    30  H    0.217975
    31  H    0.228123
 Sum of Mulliken charges =  -0.00000

 Dipole moment (field-independent basis, Debye):
    X=             -0.3170    Y=              0.4841    Z=              0.9904  Tot=              1.1471
 Quadrupole moment (field-independent basis, Debye-Ang):
   XX=            -73.9288   YY=            -84.5469   ZZ=            -80.0554
   XY=              9.2654   XZ=             -5.3552   YZ=              2.7928

  Exact polarizability: 179.947   0.878 155.615  -1.445   0.763 148.967
 Approx polarizability: 149.915  -0.651 139.453   0.256  -0.798 142.943

                      1                      2                      3
                      A                      A                      A
 Frequencies --     39.7265                73.7099               101.6908
 Red. masses --      3.8861                 3.5494                 3.4010
 Frc consts  --      0.0036                 0.0114                 0.0207
 IR Inten    --      2.0130                 3.5009                 0.9824

                      4                      5                      6
                      A                      A                      A
 Frequencies --    140.7889               198.5152               231.6857
 Red. masses --      3.3540                 2.7683                 3.6365
 Frc consts  --      0.0392                 0.0643                 0.1150
 IR Inten    --      0.5324                 2.1063                 2.0341

                      7                      8                      9
                      A                      A                      A
 Frequencies --    259.9617               292.1738               312.7420
 Red. masses --      1.9593                 2.4252                 2.5921
 Frc consts  --      0.0780                 0.1220                 0.1494
 IR Inten    --      3.1526                 4.6389                 2.0954

                     10                     11                     12
                      A                      A                      A
 Frequencies --    373.3439               414.1114               422.5266
 Red. masses --      2.5400                 3.1282                 2.8771
 Frc consts  --      0.2086                 0.3161                 0.3026
 IR Inten    --     16.5597                18.7538                 7.5652

                     13                     14                     15
                      A                      A                      A
 Frequencies --    442.9777               464.2311               502.0858
 Red. masses --      3.3083                 3.1314                 3.0287
 Frc consts  --      0.3825                 0.3976                 0.4498
 IR Inten    --      2.2011                 0.1812                 7.9052

                     16                     17                     18
                      A                      A                      A
 Frequencies --    522.3593               547.0730               626.8428
 Red. masses --      2.4135                 1.9482                 2.7516
 Frc consts  --      0.3880                 0.3435                 0.6370
 IR Inten    --      0.6422                 8.6492                 3.3745

                     19                     20                     21
                      A                      A                      A
 Frequencies --    711.5686               823.2575               832.6987
 Red. masses --      3.1316                 2.0760                 1.6388
 Frc consts  --      0.9342                 0.8290                 0.6695
 IR Inten    --      6.2580                 0.8356                 1.2559

                     22                     23                     24
                      A                      A                      A
 Frequencies --    845.7468               873.5581               888.4094
 Red. masses --      3.2327                 1.3915                 2.4493
 Frc consts  --      1.3624                 0.6256                 1.1390
 IR Inten    --      2.4660                 9.2027                 5.7839

                     25                     26                     27
                      A                      A                      A
 Frequencies --    895.5617               902.5794               931.3137
 Red. masses --      2.4364                 2.1675                 1.7752
 Frc consts  --      1.1513                 1.0404                 0.9072
 IR Inten    --     32.0053                38.5169                26.1268

                     28                     29                     30
                      A                      A                      A
 Frequencies --    944.7942               976.7101               998.5374
 Red. masses --      2.4382                 1.8326                 1.6245
 Frc consts  --      1.2823                 1.0300                 0.9543
 IR Inten    --     43.0711                74.4565                 6.1693

                     31                     32                     33
                      A                      A                      A
 Frequencies --   1008.7994              1038.2623              1051.5176
 Red. masses --      2.1875                 2.1171                 1.7358
 Frc consts  --      1.3116                 1.3446                 1.1308
 IR Inten    --     28.2633                47.0092                27.9916

                     34                     35                     36
                      A                      A                      A
 Frequencies --   1071.5390              1075.4791              1129.7950
 Red. masses --      1.7976                 1.8764                 4.1575
 Frc consts  --      1.2161                 1.2788                 3.1267
 IR Inten    --     63.7872                13.8001               410.5233

                     37                     38                     39
                      A                      A                      A
 Frequencies --   1144.7747              1146.1808              1159.2783
 Red. masses --      2.4037                 2.3363                 3.3256
 Frc consts  --      1.8560                 1.8083                 2.6333
 IR Inten    --     40.1371                68.7173               100.1653

                     40                     41                     42
                      A                      A                      A
 Frequencies --   1173.4394              1192.6923              1210.8749
 Red. masses --      3.8635                 2.4137                 1.4305
 Frc consts  --      3.1344                 2.0230                 1.2357
 IR Inten    --     80.2039                41.6650                23.4721

                     43                     44                     45
                      A                      A                      A
 Frequencies --   1217.6409              1240.0754              1250.8396
 Red. masses --      1.4364                 1.8276                 1.5711
 Frc consts  --      1.2548                 1.6559                 1.4483
 IR Inten    --     11.6208                73.4566                19.2269

                     46                     47                     48
                      A                      A                      A
 Frequencies --   1285.0746              1309.3572              1319.5082
 Red. masses --      1.2122                 1.1760                 1.1527
 Frc consts  --      1.1794                 1.1878                 1.1825
 IR Inten    --     11.0723                29.3427                 6.3576

                     49                     50                     51
                      A                      A                      A
 Frequencies --   1338.0864              1344.1504              1357.3938
 Red. masses --      1.3293                 1.2693                 1.3447
 Frc consts  --      1.4023                 1.3511                 1.4597
 IR Inten    --      5.9628                 6.1362                 9.5707

                     52                     53                     54
                      A                      A                      A
 Frequencies --   1370.4827              1380.5036              1383.0628
 Red. masses --      1.2829                 1.4912                 1.4229
 Frc consts  --      1.4197                 1.6744                 1.6036
 IR Inten    --     12.3728                12.1404                 1.3341

                     55                     56                     57
                      A                      A                      A
 Frequencies --   1391.8980              1397.9429              1399.7379
 Red. masses --      1.5894                 1.3281                 1.3627
 Frc consts  --      1.8143                 1.5292                 1.5731
 IR Inten    --      8.6978                 4.4347                10.6724

                     58                     59                     60
                      A                      A                      A
 Frequencies --   1408.8563              1415.6900              1432.7243
 Red. masses --      1.2956                 1.3865                 1.3931
 Frc consts  --      1.5151                 1.6372                 1.6848
 IR Inten    --     27.7634                 9.0016                 9.6535

                     61                     62                     63
                      A                      A                      A
 Frequencies --   1433.6380              1478.5195              1482.0041
 Red. masses --      1.3256                 1.1023                 1.0919
 Frc consts  --      1.6052                 1.4198                 1.4129
 IR Inten    --     14.7816                 3.1127                 6.2423

                     64                     65                     66
                      A                      A                      A
 Frequencies --   1484.4486              1494.3648              1495.5573
 Red. masses --      1.0861                 1.1165                 1.1087
 Frc consts  --      1.4101                 1.4690                 1.4610
 IR Inten    --     11.5852                19.6512                 6.1553

                     67                     68                     69
                      A                      A                      A
 Frequencies --   1504.5408              1510.8049              1519.7377
 Red. masses --      1.0847                 1.0938                 1.0973
 Frc consts  --      1.4467                 1.4709                 1.4932
 IR Inten    --      2.5437                 3.7241                 5.3217

                     70                     71                     72
                      A                      A                      A
 Frequencies --   3019.7285              3022.3738              3060.7223
 Red. masses --      1.0678                 1.0703                 1.0672
 Frc consts  --      5.7369                 5.7605                 5.8902
 IR Inten    --     45.0122                87.1272                33.2567

                     73                     74                     75
                      A                      A                      A
 Frequencies --   3062.0848              3068.8206              3069.7569
 Red. masses --      1.0667                 1.0655                 1.0632
 Frc consts  --      5.8931                 5.9121                 5.9029
 IR Inten    --      7.3715                44.0736                16.1168

                     76                     77                     78
                      A                      A                      A
 Frequencies --   3070.2097              3075.9546              3080.9368
 Red. masses --      1.0624                 1.0669                 1.0821
 Frc consts  --      5.9002                 5.9473                 6.0515
 IR Inten    --     47.5996                41.0454                54.1581

                     79                     80                     81
                      A                      A                      A
 Frequencies --   3100.7064              3113.9636              3117.9854
 Red. masses --      1.0852                 1.0977                 1.0986
 Frc consts  --      6.1472                 6.2711                 6.2926
 IR Inten    --     52.2010                37.5414                34.6958

                     82                     83                     84
                      A                      A                      A
 Frequencies --   3119.5278              3123.2602              3127.2626
 Red. masses --      1.1031                 1.1032                 1.0973
 Frc consts  --      6.3248                 6.3405                 6.3227
 IR Inten    --     65.9828                60.8028                44.1598

                     85                     86                     87
                      A                      A                      A
 Frequencies --   3136.3613              3137.5412              3156.1179
 Red. masses --      1.0949                 1.1010                 1.0929
 Frc consts  --      6.3459                 6.3856                 6.4143
 IR Inten    --     45.1623                44.3005                29.3404

 - Thermochemistry -
 -------------------
 Temperature   298.150 Kelvin.  Pressure   1.00000 Atm.
 Atom     1 has atomic number  6 and mass  12.00000

 Molecular mass:   186.12559 amu.
 Principal axes and moments of inertia in atomic units:
                           1         2         3
     Eigenvalues --   907.301934270.973604772.81383
           X            0.99983   0.01724  -0.00704
           Y           -0.01708   0.99961   0.02228
           Z            0.00742  -0.02215   0.99973
 This molecule is an asymmetric top.
 Rotational symmetry number  1.
 Warning -- assumption of classical behavior for rotation
           may cause significant error
 Rotational temperatures (Kelvin)      0.09546     0.02028     0.01815
 Rotational constants (GHZ):           1.98913     0.42256     0.37813
 Zero-point vibrational energy     737520.9 (Joules/Mol)
                                  176.27173 (Kcal/Mol)
 Warning -- explicit consideration of  17 degrees of freedom as
           vibrations may cause significant error
 Vibrational temperatures:     57.16   106.05   146.31   202.56   285.62
          (Kelvin)            333.34   374.03   420.37   449.97   537.16
                              595.81   607.92   637.35   667.93   722.39
                              751.56   787.12   901.89  1023.79  1184.48
                             1198.07  1216.84  1256.86  1278.22  1288.51
                             1298.61  1339.95  1359.35  1405.27  1436.67
                             1451.44  1493.83  1512.90  1541.71  1547.37
                             1625.52  1647.08  1649.10  1667.94  1688.32
                             1716.02  1742.18  1751.91  1784.19  1799.68
                             1848.94  1883.87  1898.48  1925.21  1933.93
                             1952.99  1971.82  1986.24  1989.92  2002.63
                             2011.33  2013.91  2027.03  2036.86  2061.37
                             2062.69  2127.26  2132.27  2135.79  2150.06
                             2151.77  2164.70  2173.71  2186.56  4344.72
                             4348.52  4403.70  4405.66  4415.35  4416.70
                             4417.35  4425.61  4432.78  4461.22  4480.30
                             4486.09  4488.30  4493.67  4499.43  4512.52
                             4514.22  4540.95

 Zero-point correction=                           0.280907 (Hartree/Particle)
 Thermal correction to Energy=                    0.292584
 Thermal correction to Enthalpy=                  0.293528
 Thermal correction to Gibbs Free Energy=         0.242861
 Sum of electronic and zero-point Energies=           -617.214788
 Sum of electronic and thermal Energies=              -617.203111
 Sum of electronic and thermal Enthalpies=            -617.202167
 Sum of electronic and thermal Free Energies=         -617.252834

                     E (Thermal)             CV                S
                      KCal/Mol        Cal/Mol-Kelvin    Cal/Mol-Kelvin
 Total                  183.599             46.757            106.639
 Electronic               0.000              0.000              0.000
 Translational            0.889              2.981             41.570
 Rotational               0.889              2.981             31.292
 Vibrational            181.822             40.795             33.776
 Vibration     1          0.594              1.981              5.273
 Vibration     2          0.599              1.966              4.052
 Vibration     3          0.604              1.948              3.422
 Vibration     4          0.615              1.912              2.793
 Vibration     5          0.637              1.842              2.147
 Vibration     6          0.653              1.793              1.866
 Vibration     7          0.668              1.746              1.662
 Vibration     8          0.688              1.688              1.461
 Vibration     9          0.701              1.649              1.348
 Vibration    10          0.745              1.527              1.066
 Vibration    11          0.778              1.440              0.912
 Vibration    12          0.785              1.421              0.883
 Vibration    13          0.803              1.376              0.817
 Vibration    14          0.822              1.329              0.754
 Vibration    15          0.857              1.245              0.653
 Vibration    16          0.877              1.200              0.605
 Vibration    17          0.902              1.146              0.550

 Optimization completed.
    -- Stationary point found.
 Normal termination of Gaussian 16 at Sun Nov  4 22:57:59 2018.
