 Gaussian 16, Revision A.03,
 Gaussian 16:  ES64L-G16RevA.03 25-Dec-2016

 ----------------------------------------------------------------------
 #M062X/6-311++G(2d,2p) opt=ModRedundant freq=noraman SCRF=(Solvent=Wat
 er)
 ----------------------------------------------------------------------

 ----------------------------
 D_1a_4e_D_PHI.inp_extract_19
 ----------------------------
 Symbolic Z-matrix:
 Charge =  0 Multiplicity = 1

 SCF Done:  E(RM062X) =  -617.482197369     A.U. after   12 cycles
 SCF Done:  E(RM062X) =  -617.480120887     A.U. after   12 cycles
 SCF Done:  E(RM062X) =  -617.483239616     A.U. after   11 cycles
 SCF Done:  E(RM062X) =  -617.484136029     A.U. after   11 cycles
 SCF Done:  E(RM062X) =  -617.484309150     A.U. after   10 cycles
 SCF Done:  E(RM062X) =  -617.484434548     A.U. after    9 cycles
 SCF Done:  E(RM062X) =  -617.484443841     A.U. after    8 cycles
 SCF Done:  E(RM062X) =  -617.484442819     A.U. after    8 cycles
 SCF Done:  E(RM062X) =  -617.484442335     A.U. after    8 cycles
 SCF Done:  E(RM062X) =  -617.484444204     A.U. after    8 cycles
 Optimization completed.
    -- Stationary point found.
 Normal termination of Gaussian 16 at Sun Nov  4 22:15:45 2018.

 ----------------------------------------------------------------------
 #N Geom=AllCheck Guess=TCheck SCRF=Check GenChk RM062X/6-311++G(2d,2p)
  Freq
 ----------------------------------------------------------------------

 Structure from the checkpoint file:  "D_1a_4e_D_PHI.inp_extract_19.chk"
 ----------------------------
 D_1a_4e_D_PHI.inp_extract_19
 ----------------------------
 Charge =  0 Multiplicity = 1

                         Standard orientation:
 ---------------------------------------------------------------------
 Center     Atomic      Atomic             Coordinates (Angstroms)
 Number     Number       Type             X           Y           Z
 ---------------------------------------------------------------------
      1          6           0        2.673496    0.952549   -1.135781
      2          6           0        1.466664   -1.059153    0.549643
      3          6           0       -0.982039   -0.376475    0.854328
      4          6           0        2.706100    1.121487    0.380006
      5          8           0       -2.860421   -0.935932   -0.514745
      6          6           0       -3.207007    0.429697   -0.710698
      7          6           0        1.429171    0.179184   -1.528976
      8          6           0       -1.300959    1.111552    0.767053
      9          6           0       -1.452772   -1.097905   -0.412646
     10          6           0       -2.795525    1.281122    0.480850
     11          8           0        1.299931   -1.068291   -0.838517
     12          8           0        0.342919   -0.619594    1.310326
     13          6           0        2.675936   -0.262750    1.014727
     14          1           0        3.562988    0.410934   -1.465426
     15          1           0        2.661067    1.914533   -1.648431
     16          1           0       -1.611581   -0.786771    1.650484
     17          1           0        3.596029    1.664534    0.694866
     18          1           0        1.837045    1.698722    0.707214
     19          1           0       -4.284100    0.454341   -0.861925
     20          1           0       -2.720213    0.796412   -1.622985
     21          1           0        0.545814    0.793543   -1.345940
     22          1           0        1.437420   -0.084267   -2.584503
     23          1           0       -0.716965    1.582216   -0.025497
     24          1           0       -1.026744    1.594276    1.705352
     25          1           0       -3.373739    0.967563    1.352537
     26          1           0       -3.036536    2.325996    0.284373
     27          1           0        3.570461   -0.817123    0.722658
     28          1           0        2.652786   -0.216306    2.102045
     29          1           0        1.604362   -2.114636    0.793110
     30          1           0       -0.985763   -0.703859   -1.315217
     31          1           0       -1.250160   -2.165416   -0.350272
 ---------------------------------------------------------------------

 SCF Done:  E(RM062X) =  -617.484444204     A.U. after    1 cycles

 The electronic state is 1-A.
 Alpha  occ. eigenvalues --  -19.63779 -19.62967 -19.62382 -10.63952 -10.59047
 Alpha  occ. eigenvalues --  -10.58320 -10.58020 -10.57978 -10.53241 -10.53194
 Alpha  occ. eigenvalues --  -10.53155 -10.53074 -10.53043  -1.19473  -1.16455
 Alpha  occ. eigenvalues --   -1.13235  -0.91128  -0.90214  -0.87446  -0.84507
 Alpha  occ. eigenvalues --   -0.75259  -0.74159  -0.73505  -0.70428  -0.67072
 Alpha  occ. eigenvalues --   -0.62704  -0.59561  -0.59229  -0.56685  -0.56312
 Alpha  occ. eigenvalues --   -0.53445  -0.53350  -0.51578  -0.51178  -0.50217
 Alpha  occ. eigenvalues --   -0.49324  -0.46764  -0.46132  -0.45560  -0.45214
 Alpha  occ. eigenvalues --   -0.44325  -0.41978  -0.41278  -0.40017  -0.39671
 Alpha  occ. eigenvalues --   -0.38686  -0.37712  -0.36461  -0.34751  -0.33007
 Alpha  occ. eigenvalues --   -0.31297
 Alpha virt. eigenvalues --   -0.00167   0.00744   0.00800   0.01036   0.02298
 Alpha virt. eigenvalues --    0.02616   0.02704   0.03208   0.03338   0.04793
 Alpha virt. eigenvalues --    0.05049   0.05199   0.05739   0.05998   0.07127

 Mulliken charges:
               1
     1  C   -0.368482
     2  C   -0.100974
     3  C   -0.418960
     4  C   -0.322036
     5  O   -0.344006
     6  C   -0.201243
     7  C   -0.213551
     8  C   -0.101677
     9  C   -0.282799
    10  C   -0.328689
    11  O   -0.251073
    12  O   -0.281438
    13  C   -0.300236
    14  H    0.175471
    15  H    0.180086
    16  H    0.249329
    17  H    0.206436
    18  H    0.153094
    19  H    0.220859
    20  H    0.125875
    21  H    0.168042
    22  H    0.216320
    23  H    0.201743
    24  H    0.189172
    25  H    0.177444
    26  H    0.166833
    27  H    0.192435
    28  H    0.186699
    29  H    0.231128
    30  H    0.247599
    31  H    0.226600
 Sum of Mulliken charges =  -0.00000

 Dipole moment (field-independent basis, Debye):
    X=              1.6895    Y=              3.3059    Z=             -0.8760  Tot=              3.8145
 Quadrupole moment (field-independent basis, Debye-Ang):
   XX=            -78.3780   YY=            -80.9035   ZZ=            -81.0225
   XY=             -4.9268   XZ=             -1.1699   YZ=             -2.9675

  Exact polarizability: 173.047  -3.485 156.286   0.888  -1.878 156.742
 Approx polarizability: 147.763  -2.580 143.088  -1.038  -1.849 143.332

 ******    1 imaginary frequencies (negative Signs) ******

                      1                      2                      3
                      A                      A                      A
 Frequencies --    -92.1332                84.1780               113.3149
 Red. masses --      4.7516                 3.3702                 2.9577
 Frc consts  --      0.0238                 0.0141                 0.0224
 IR Inten    --      7.2334                 0.2391                 1.3928

                      4                      5                      6
                      A                      A                      A
 Frequencies --    134.7069               181.4297               211.6365
 Red. masses --      3.4936                 3.2008                 3.5581
 Frc consts  --      0.0374                 0.0621                 0.0939
 IR Inten    --      4.4340                 2.4063                 4.1022

                      7                      8                      9
                      A                      A                      A
 Frequencies --    255.8556               292.1038               300.6528
 Red. masses --      1.9152                 4.2552                 2.2961
 Frc consts  --      0.0739                 0.2139                 0.1223
 IR Inten    --      2.2983                 9.5502                 5.5801

                     10                     11                     12
                      A                      A                      A
 Frequencies --    355.8836               376.5669               426.7795
 Red. masses --      2.1630                 2.6596                 2.6883
 Frc consts  --      0.1614                 0.2222                 0.2885
 IR Inten    --      1.9213                17.6344                 6.0742

                     13                     14                     15
                      A                      A                      A
 Frequencies --    434.9714               455.3283               474.0336
 Red. masses --      3.3013                 3.0869                 2.6080
 Frc consts  --      0.3680                 0.3771                 0.3453
 IR Inten    --      4.2854                 0.2155                 0.9103

                     16                     17                     18
                      A                      A                      A
 Frequencies --    535.3580               560.8598               650.7770
 Red. masses --      2.2463                 1.9774                 4.6313
 Frc consts  --      0.3793                 0.3665                 1.1556
 IR Inten    --      1.0954                11.2837                 5.3105

                     19                     20                     21
                      A                      A                      A
 Frequencies --    698.9812               801.2989               826.4401
 Red. masses --      2.9977                 2.2076                 2.1746
 Frc consts  --      0.8629                 0.8351                 0.8751
 IR Inten    --      2.4366                 3.6860                 0.2255

                     22                     23                     24
                      A                      A                      A
 Frequencies --    844.3939               870.9130               878.3252
 Red. masses --      2.1626                 1.4225                 2.4631
 Frc consts  --      0.9085                 0.6357                 1.1196
 IR Inten    --      6.7915                11.3484                12.9032

                     25                     26                     27
                      A                      A                      A
 Frequencies --    894.2519               903.3764               921.9386
 Red. masses --      2.2971                 2.5343                 2.0241
 Frc consts  --      1.0823                 1.2185                 1.0137
 IR Inten    --     16.6180                33.1707                38.7140

                     28                     29                     30
                      A                      A                      A
 Frequencies --    939.9844               956.3532               991.5999
 Red. masses --      2.1948                 1.6829                 1.6487
 Frc consts  --      1.1426                 0.9069                 0.9551
 IR Inten    --     38.5483                27.7149                15.4685

                     31                     32                     33
                      A                      A                      A
 Frequencies --   1014.2208              1040.1794              1049.1881
 Red. masses --      2.3265                 2.3146                 1.7257
 Frc consts  --      1.4100                 1.4755                 1.1192
 IR Inten    --     37.1116                47.0121                57.5235

                     34                     35                     36
                      A                      A                      A
 Frequencies --   1065.5217              1075.3620              1114.7630
 Red. masses --      1.5052                 2.1163                 2.6980
 Frc consts  --      1.0069                 1.4419                 1.9754
 IR Inten    --     59.6236                10.1470               154.9666

                     37                     38                     39
                      A                      A                      A
 Frequencies --   1137.1442              1153.2603              1161.0493
 Red. masses --      3.2715                 2.5972                 3.1128
 Frc consts  --      2.4925                 2.0352                 2.4723
 IR Inten    --    181.5591                95.4103                10.1087

                     40                     41                     42
                      A                      A                      A
 Frequencies --   1178.2349              1199.6480              1204.9396
 Red. masses --      2.5482                 2.4081                 1.4676
 Frc consts  --      2.0842                 2.0419                 1.2554
 IR Inten    --     56.1580               255.7663                11.9465

                     43                     44                     45
                      A                      A                      A
 Frequencies --   1209.8302              1240.7098              1253.2469
 Red. masses --      1.3857                 1.7570                 1.7515
 Frc consts  --      1.1950                 1.5935                 1.6208
 IR Inten    --     11.7788               112.2154                22.7194

                     46                     47                     48
                      A                      A                      A
 Frequencies --   1289.8777              1300.0607              1324.6078
 Red. masses --      1.2189                 1.1626                 1.1736
 Frc consts  --      1.1948                 1.1577                 1.2132
 IR Inten    --     21.2133                11.5499                13.4930

                     49                     50                     51
                      A                      A                      A
 Frequencies --   1338.5088              1343.5198              1359.8265
 Red. masses --      1.2923                 1.3198                 1.3552
 Frc consts  --      1.3641                 1.4036                 1.4765
 IR Inten    --     18.5237                 8.1879                 5.2478

                     52                     53                     54
                      A                      A                      A
 Frequencies --   1374.1366              1383.6012              1390.5208
 Red. masses --      1.3295                 1.4286                 1.4768
 Frc consts  --      1.4791                 1.6113                 1.6823
 IR Inten    --     38.7532                 2.6885                 7.2951

                     55                     56                     57
                      A                      A                      A
 Frequencies --   1392.6798              1405.8348              1410.8799
 Red. masses --      1.7287                 1.3310                 1.3292
 Frc consts  --      1.9755                 1.5499                 1.5589
 IR Inten    --     13.8018                 7.8799                 3.0469

                     58                     59                     60
                      A                      A                      A
 Frequencies --   1419.5317              1420.7421              1432.9589
 Red. masses --      1.2547                 1.3311                 1.2626
 Frc consts  --      1.4896                 1.5830                 1.5275
 IR Inten    --      3.2661                 9.0057                 4.6479

                     61                     62                     63
                      A                      A                      A
 Frequencies --   1455.0863              1476.5832              1481.5465
 Red. masses --      1.2877                 1.1017                 1.0923
 Frc consts  --      1.6064                 1.4152                 1.4126
 IR Inten    --     14.2845                 5.7140                 4.4274

                     64                     65                     66
                      A                      A                      A
 Frequencies --   1486.1929              1492.5858              1496.6371
 Red. masses --      1.0873                 1.1105                 1.0940
 Frc consts  --      1.4150                 1.4576                 1.4438
 IR Inten    --     11.7935                17.8283                 5.4260

                     67                     68                     69
                      A                      A                      A
 Frequencies --   1499.3366              1512.8153              1517.8675
 Red. masses --      1.1088                 1.1017                 1.0967
 Frc consts  --      1.4686                 1.4856                 1.4886
 IR Inten    --      3.0658                 6.3184                 6.4744

                     70                     71                     72
                      A                      A                      A
 Frequencies --   3016.4389              3038.9375              3059.5711
 Red. masses --      1.0707                 1.0832                 1.0703
 Frc consts  --      5.7397                 5.8939                 5.9030
 IR Inten    --     73.4305                34.8319                39.0417

                     73                     74                     75
                      A                      A                      A
 Frequencies --   3063.9505              3067.4892              3070.0604
 Red. masses --      1.0784                 1.0636                 1.0634
 Frc consts  --      5.9648                 5.8966                 5.9053
 IR Inten    --     26.6996                30.6938                19.5075

                     76                     77                     78
                      A                      A                      A
 Frequencies --   3072.1738              3078.8181              3089.3772
 Red. masses --      1.0611                 1.0690                 1.0599
 Frc consts  --      5.9008                 5.9704                 5.9600
 IR Inten    --     94.1695                89.2426                49.6315

                     79                     80                     81
                      A                      A                      A
 Frequencies --   3093.3225              3116.5729              3118.2501
 Red. masses --      1.0597                 1.1002                 1.0960
 Frc consts  --      5.9741                 6.2961                 6.2789
 IR Inten    --     19.3421                37.0187                29.6154

                     82                     83                     84
                      A                      A                      A
 Frequencies --   3120.5209              3124.9823              3132.2461
 Red. masses --      1.1012                 1.1010                 1.0947
 Frc consts  --      6.3176                 6.3346                 6.3277
 IR Inten    --     56.0885                97.8586                51.2624

                     85                     86                     87
                      A                      A                      A
 Frequencies --   3135.0337              3139.1081              3146.9479
 Red. masses --      1.0995                 1.1044                 1.1077
 Frc consts  --      6.3667                 6.4121                 6.4635
 IR Inten    --     28.4100                18.3760                47.2624

 - Thermochemistry -
 -------------------
 Temperature   298.150 Kelvin.  Pressure   1.00000 Atm.
 Atom     1 has atomic number  6 and mass  12.00000

 Molecular mass:   186.12559 amu.
 Principal axes and moments of inertia in atomic units:
                           1         2         3
     Eigenvalues --  1175.230903648.087623660.96837
           X            0.99999  -0.00466   0.00163
           Y            0.00479   0.83780  -0.54596
           Z            0.00118   0.54596   0.83781
 This molecule is an asymmetric top.
 Rotational symmetry number  1.
 Warning -- assumption of classical behavior for rotation
           may cause significant error
 Rotational temperatures (Kelvin)      0.07370     0.02374     0.02366
 Rotational constants (GHZ):           1.53565     0.49471     0.49297
    1 imaginary frequencies ignored.
 Zero-point vibrational energy     736656.4 (Joules/Mol)
                                  176.06510 (Kcal/Mol)
 Warning -- explicit consideration of  16 degrees of freedom as
           vibrations may cause significant error
 Vibrational temperatures:    121.11   163.03   193.81   261.04   304.50
          (Kelvin)            368.12   420.27   432.57   512.04   541.80
                              614.04   625.83   655.12   682.03   770.26
                              806.95   936.32  1005.68  1152.89  1189.06
                             1214.89  1253.05  1263.71  1286.63  1299.76
                             1326.46  1352.43  1375.98  1426.69  1459.24
                             1496.59  1509.55  1533.05  1547.21  1603.90
                             1636.10  1659.28  1670.49  1695.22  1726.03
                             1733.64  1740.68  1785.10  1803.14  1855.85
                             1870.50  1905.82  1925.82  1933.03  1956.49
                             1977.08  1990.69  2000.65  2003.76  2022.68
                             2029.94  2042.39  2044.13  2061.71  2093.54
                             2124.47  2131.62  2138.30  2147.50  2153.33
                             2157.21  2176.60  2183.87  4339.98  4372.35
                             4402.04  4408.34  4413.43  4417.13  4420.17
                             4429.73  4444.92  4450.60  4484.05  4486.47
                             4489.73  4496.15  4506.60  4510.61  4516.48
                             4527.76

 Zero-point correction=                           0.280578 (Hartree/Particle)
 Thermal correction to Energy=                    0.291524
 Thermal correction to Enthalpy=                  0.292468
 Thermal correction to Gibbs Free Energy=         0.244226
 Sum of electronic and zero-point Energies=           -617.203867
 Sum of electronic and thermal Energies=              -617.192920
 Sum of electronic and thermal Enthalpies=            -617.191976
 Sum of electronic and thermal Free Energies=         -617.240218

                     E (Thermal)             CV                S
                      KCal/Mol        Cal/Mol-Kelvin    Cal/Mol-Kelvin
 Total                  182.934             45.076            101.534
 Electronic               0.000              0.000              0.000
 Translational            0.889              2.981             41.570
 Rotational               0.889              2.981             31.129
 Vibrational            181.157             39.114             28.835
 Vibration     1          0.601              1.960              3.791
 Vibration     2          0.607              1.938              3.211
 Vibration     3          0.613              1.919              2.878
 Vibration     4          0.630              1.865              2.314
 Vibration     5          0.643              1.823              2.030
 Vibration     6          0.666              1.753              1.690
 Vibration     7          0.687              1.688              1.462
 Vibration     8          0.693              1.672              1.413
 Vibration     9          0.731              1.563              1.140
 Vibration    10          0.747              1.520              1.053
 Vibration    11          0.788              1.412              0.869
 Vibration    12          0.796              1.394              0.843
 Vibration    13          0.814              1.349              0.780
 Vibration    14          0.831              1.308              0.726
 Vibration    15          0.890              1.172              0.575
 Vibration    16          0.917              1.116              0.522

                           ! Non-Optimized Parameters !
 Normal termination of Gaussian 16 at Sun Nov  4 23:11:47 2018.
