 Gaussian 16, Revision A.03,
 Gaussian 16:  ES64L-G16RevA.03 25-Dec-2016

 ----------------------------------------------------------------------
 #M062X/6-311++G(2d,2p) opt=ModRedundant freq=noraman SCRF=(Solvent=Wat
 er)
 ----------------------------------------------------------------------

 ---------------------------
 D_1a_4e_D_PHI.inp_extract_6
 ---------------------------
 Symbolic Z-matrix:
 Charge =  0 Multiplicity = 1

 SCF Done:  E(RM062X) =  -617.492719526     A.U. after   12 cycles
 SCF Done:  E(RM062X) =  -617.493864190     A.U. after   11 cycles
 SCF Done:  E(RM062X) =  -617.494156570     A.U. after   11 cycles
 SCF Done:  E(RM062X) =  -617.494808655     A.U. after   11 cycles
 SCF Done:  E(RM062X) =  -617.494926595     A.U. after    9 cycles
 SCF Done:  E(RM062X) =  -617.494933042     A.U. after    9 cycles
 SCF Done:  E(RM062X) =  -617.494933565     A.U. after    8 cycles
 SCF Done:  E(RM062X) =  -617.494933797     A.U. after    7 cycles
 Optimization completed.
    -- Stationary point found.
 Normal termination of Gaussian 16 at Sun Nov  4 22:06:17 2018.

 ----------------------------------------------------------------------
 #N Geom=AllCheck Guess=TCheck SCRF=Check GenChk RM062X/6-311++G(2d,2p)
  Freq
 ----------------------------------------------------------------------

 Structure from the checkpoint file:  "D_1a_4e_D_PHI.inp_extract_6.chk"
 ---------------------------
 D_1a_4e_D_PHI.inp_extract_6
 ---------------------------
 Charge =  0 Multiplicity = 1

                         Standard orientation:
 ---------------------------------------------------------------------
 Center     Atomic      Atomic             Coordinates (Angstroms)
 Number     Number       Type             X           Y           Z
 ---------------------------------------------------------------------
      1          6           0        3.308780    0.960599    0.073468
      2          6           0        1.156192   -0.949119    0.358473
      3          6           0       -1.030609   -0.469774   -0.674159
      4          6           0        1.955449    1.429742    0.603306
      5          8           0       -2.727909    1.242129   -0.728695
      6          6           0       -3.428850    0.651073    0.358911
      7          6           0        3.112348   -0.260012   -0.807940
      8          6           0       -1.748735   -1.202910    0.453308
      9          6           0       -1.331108    1.028835   -0.623436
     10          6           0       -3.238306   -0.857374    0.384216
     11          8           0        2.427977   -1.304903   -0.111399
     12          8           0        0.359314   -0.744211   -0.797429
     13          6           0        1.252918    0.258993    1.286707
     14          1           0        3.961692    0.698701    0.909331
     15          1           0        3.802497    1.744556   -0.501334
     16          1           0       -1.455378   -0.826383   -1.616150
     17          1           0        2.075012    2.256309    1.302798
     18          1           0        1.349386    1.794134   -0.229090
     19          1           0       -4.475700    0.915949    0.227891
     20          1           0       -3.074075    1.092298    1.298619
     21          1           0        2.549544    0.005567   -1.705540
     22          1           0        4.062992   -0.692576   -1.111201
     23          1           0       -1.356979   -0.894745    1.425305
     24          1           0       -1.593675   -2.278223    0.359829
     25          1           0       -3.676717   -1.283819   -0.520219
     26          1           0       -3.768699   -1.277760    1.238619
     27          1           0        1.838572   -0.064181    2.150435
     28          1           0        0.269854    0.535766    1.660551
     29          1           0        0.792691   -1.822458    0.902722
     30          1           0       -0.961267    1.483804    0.300636
     31          1           0       -0.863280    1.528632   -1.470140
 ---------------------------------------------------------------------

 SCF Done:  E(RM062X) =  -617.494933797     A.U. after    1 cycles

 The electronic state is 1-A.
 Alpha  occ. eigenvalues --  -19.63243 -19.63163 -19.63112 -10.63861 -10.59187
 Alpha  occ. eigenvalues --  -10.58194 -10.58138 -10.57786 -10.53688 -10.53498
 Alpha  occ. eigenvalues --  -10.53242 -10.53197 -10.52939  -1.19992  -1.16751
 Alpha  occ. eigenvalues --   -1.13337  -0.90468  -0.90303  -0.87347  -0.85160
 Alpha  occ. eigenvalues --   -0.75309  -0.73877  -0.73457  -0.70934  -0.67028
 Alpha  occ. eigenvalues --   -0.62948  -0.59993  -0.58504  -0.57007  -0.55820
 Alpha  occ. eigenvalues --   -0.55345  -0.53391  -0.52106  -0.50674  -0.49529
 Alpha  occ. eigenvalues --   -0.49341  -0.47595  -0.46298  -0.45889  -0.44891
 Alpha  occ. eigenvalues --   -0.44294  -0.43335  -0.40781  -0.40178  -0.39277
 Alpha  occ. eigenvalues --   -0.38082  -0.37990  -0.37068  -0.35625  -0.33255
 Alpha  occ. eigenvalues --   -0.31327
 Alpha virt. eigenvalues --   -0.00092   0.00760   0.00826   0.01035   0.02273
 Alpha virt. eigenvalues --    0.02518   0.02735   0.03449   0.03553   0.04525
 Alpha virt. eigenvalues --    0.04796   0.04886   0.05864   0.06038   0.07282

 Mulliken charges:
               1
     1  C   -0.386381
     2  C   -0.132511
     3  C   -0.291075
     4  C   -0.208966
     5  O   -0.340149
     6  C   -0.163867
     7  C   -0.233748
     8  C   -0.204066
     9  C   -0.268211
    10  C   -0.387769
    11  O   -0.319253
    12  O   -0.376330
    13  C   -0.284137
    14  H    0.169275
    15  H    0.168697
    16  H    0.259737
    17  H    0.189587
    18  H    0.152756
    19  H    0.221345
    20  H    0.129597
    21  H    0.176052
    22  H    0.218649
    23  H    0.202722
    24  H    0.193075
    25  H    0.177577
    26  H    0.171216
    27  H    0.225783
    28  H    0.200342
    29  H    0.283570
    30  H    0.230610
    31  H    0.225877
 Sum of Mulliken charges =  -0.00000

 Dipole moment (field-independent basis, Debye):
    X=             -0.7891    Y=              0.9466    Z=              2.8309  Tot=              3.0875
 Quadrupole moment (field-independent basis, Debye-Ang):
   XX=            -77.6051   YY=            -84.5264   ZZ=            -79.9587
   XY=             11.0314   XZ=             -4.9180   YZ=             -0.0566

  Exact polarizability: 178.440   2.427 153.810  -3.130  -1.345 151.362
 Approx polarizability: 150.352   0.276 139.496  -0.570  -1.859 143.069

                      1                      2                      3
                      A                      A                      A
 Frequencies --     68.8312                88.7748               105.6559
 Red. masses --      4.0477                 3.3666                 3.1387
 Frc consts  --      0.0113                 0.0156                 0.0206
 IR Inten    --      1.2593                 2.3214                 1.0601

                      4                      5                      6
                      A                      A                      A
 Frequencies --    169.6535               176.2278               241.1043
 Red. masses --      3.0687                 3.3385                 3.1480
 Frc consts  --      0.0520                 0.0611                 0.1078
 IR Inten    --      0.4734                 4.4527                 0.6810

                      7                      8                      9
                      A                      A                      A
 Frequencies --    258.1344               309.1536               322.4256
 Red. masses --      2.0182                 2.1925                 4.5292
 Frc consts  --      0.0792                 0.1235                 0.2774
 IR Inten    --      5.3794                 0.3906                11.4078

                     10                     11                     12
                      A                      A                      A
 Frequencies --    361.3180               387.6253               419.7861
 Red. masses --      2.2570                 3.2833                 2.2080
 Frc consts  --      0.1736                 0.2907                 0.2292
 IR Inten    --      9.4990                23.4173                 3.7160

                     13                     14                     15
                      A                      A                      A
 Frequencies --    441.6104               459.7273               482.9228
 Red. masses --      3.3938                 3.7542                 2.7901
 Frc consts  --      0.3900                 0.4675                 0.3834
 IR Inten    --      2.9844                 1.0876                 3.8841

                     16                     17                     18
                      A                      A                      A
 Frequencies --    537.0003               548.1730               652.0389
 Red. masses --      2.2256                 1.9226                 2.9655
 Frc consts  --      0.3781                 0.3404                 0.7428
 IR Inten    --      2.0355                 3.9739                 6.2495

                     19                     20                     21
                      A                      A                      A
 Frequencies --    708.0199               819.0819               831.6877
 Red. masses --      3.2603                 2.1241                 1.8175
 Frc consts  --      0.9629                 0.8396                 0.7407
 IR Inten    --      6.5691                 1.2134                 1.7212

                     22                     23                     24
                      A                      A                      A
 Frequencies --    842.9521               875.2921               884.3717
 Red. masses --      2.7067                 1.4263                 2.3736
 Frc consts  --      1.1332                 0.6438                 1.0938
 IR Inten    --      1.5406                15.1403                 5.5772

                     25                     26                     27
                      A                      A                      A
 Frequencies --    891.4450               905.4714               929.4279
 Red. masses --      2.3807                 2.2516                 1.7832
 Frc consts  --      1.1147                 1.0877                 0.9076
 IR Inten    --     15.1538                43.3172                22.9847

                     28                     29                     30
                      A                      A                      A
 Frequencies --    946.9216               977.5845               992.6053
 Red. masses --      2.3620                 2.0123                 1.6863
 Frc consts  --      1.2478                 1.1330                 0.9789
 IR Inten    --     40.4467                62.9742                 3.8399

                     31                     32                     33
                      A                      A                      A
 Frequencies --   1010.2468              1037.3937              1052.9018
 Red. masses --      2.0238                 2.1798                 1.7410
 Frc consts  --      1.2169                 1.3822                 1.1371
 IR Inten    --     31.4881                60.9119                21.3814

                     34                     35                     36
                      A                      A                      A
 Frequencies --   1068.7101              1076.5057              1126.0989
 Red. masses --      1.6169                 2.0796                 2.7556
 Frc consts  --      1.0881                 1.4199                 2.0588
 IR Inten    --     75.3320                 9.2066               201.4863

                     37                     38                     39
                      A                      A                      A
 Frequencies --   1145.4232              1151.8597              1156.5926
 Red. masses --      3.0880                 2.5327                 3.2474
 Frc consts  --      2.3870                 1.9799                 2.5594
 IR Inten    --     48.5699               157.1652               106.7044

                     40                     41                     42
                      A                      A                      A
 Frequencies --   1182.8900              1190.4978              1209.1988
 Red. masses --      3.2601                 2.2228                 1.4819
 Frc consts  --      2.6876                 1.8562                 1.2766
 IR Inten    --    126.2668                12.1498               105.9164

                     43                     44                     45
                      A                      A                      A
 Frequencies --   1219.1071              1241.4587              1257.5336
 Red. masses --      1.4774                 1.8506                 1.6121
 Frc consts  --      1.2937                 1.6804                 1.5020
 IR Inten    --      4.2001                48.4978                29.9294

                     46                     47                     48
                      A                      A                      A
 Frequencies --   1285.4968              1307.1827              1321.5831
 Red. masses --      1.2127                 1.1969                 1.1600
 Frc consts  --      1.1808                 1.2050                 1.1937
 IR Inten    --     11.9832                22.0121                 3.2547

                     49                     50                     51
                      A                      A                      A
 Frequencies --   1332.6224              1347.3667              1360.4926
 Red. masses --      1.2765                 1.2848                 1.3377
 Frc consts  --      1.3356                 1.3742                 1.4588
 IR Inten    --     13.5884                 4.8893                 7.0860

                     52                     53                     54
                      A                      A                      A
 Frequencies --   1374.5278              1379.4376              1384.2761
 Red. masses --      1.2611                 1.4669                 1.4235
 Frc consts  --      1.4038                 1.6446                 1.6071
 IR Inten    --     15.3762                22.3075                 2.4948

                     55                     56                     57
                      A                      A                      A
 Frequencies --   1390.4746              1397.4031              1405.1998
 Red. masses --      1.5298                 1.2551                 1.3574
 Frc consts  --      1.7426                 1.4440                 1.5792
 IR Inten    --      7.1655                10.7554                13.5195

                     58                     59                     60
                      A                      A                      A
 Frequencies --   1409.4196              1418.3489              1432.1600
 Red. masses --      1.3496                 1.4311                 1.3681
 Frc consts  --      1.5796                 1.6962                 1.6533
 IR Inten    --      8.1222                 4.3108                 3.4631

                     61                     62                     63
                      A                      A                      A
 Frequencies --   1434.4123              1481.1015              1482.3477
 Red. masses --      1.3748                 1.0970                 1.0921
 Frc consts  --      1.6666                 1.4178                 1.4138
 IR Inten    --     19.7543                 6.3818                 4.9451

                     64                     65                     66
                      A                      A                      A
 Frequencies --   1487.6707              1496.6550              1498.0225
 Red. masses --      1.0878                 1.1034                 1.1084
 Frc consts  --      1.4185                 1.4562                 1.4655
 IR Inten    --      7.7154                11.4425                 7.7311

                     67                     68                     69
                      A                      A                      A
 Frequencies --   1503.5658              1509.6196              1516.4443
 Red. masses --      1.0912                 1.0956                 1.1028
 Frc consts  --      1.4534                 1.4711                 1.4941
 IR Inten    --      3.0631                 4.5927                15.4306

                     70                     71                     72
                      A                      A                      A
 Frequencies --   3018.0129              3049.0488              3061.5926
 Red. masses --      1.0707                 1.0679                 1.0762
 Frc consts  --      5.7461                 5.8493                 5.9437
 IR Inten    --     68.1451                35.1836                28.6006

                     73                     74                     75
                      A                      A                      A
 Frequencies --   3062.3944              3070.6411              3070.7432
 Red. masses --      1.0669                 1.0674                 1.0652
 Frc consts  --      5.8951                 5.9296                 5.9182
 IR Inten    --     45.3778                19.6803                26.4298

                     76                     77                     78
                      A                      A                      A
 Frequencies --   3071.4189              3072.8239              3076.5727
 Red. masses --      1.0634                 1.0619                 1.0676
 Frc consts  --      5.9103                 5.9074                 5.9540
 IR Inten    --     41.9560                78.1103                17.4385

                     79                     80                     81
                      A                      A                      A
 Frequencies --   3087.3913              3114.9132              3115.1969
 Red. masses --      1.0830                 1.1001                 1.0989
 Frc consts  --      6.0820                 6.2887                 6.2830
 IR Inten    --     90.5674                67.1387                 2.8334

                     82                     83                     84
                      A                      A                      A
 Frequencies --   3121.0355              3123.3188              3129.3561
 Red. masses --      1.1031                 1.1034                 1.0995
 Frc consts  --      6.3307                 6.3421                 6.3438
 IR Inten    --     58.5371                59.4548                26.9701

                     85                     86                     87
                      A                      A                      A
 Frequencies --   3135.4399              3138.4270              3148.7781
 Red. masses --      1.0947                 1.1014                 1.0932
 Frc consts  --      6.3410                 6.3919                 6.3858
 IR Inten    --     49.8654                46.6154                37.8611

 - Thermochemistry -
 -------------------
 Temperature   298.150 Kelvin.  Pressure   1.00000 Atm.
 Atom     1 has atomic number  6 and mass  12.00000

 Molecular mass:   186.12559 amu.
 Principal axes and moments of inertia in atomic units:
                           1         2         3
     Eigenvalues --  1006.817013948.791934282.70344
           X            0.99975   0.02125  -0.00709
           Y           -0.02123   0.99977   0.00268
           Z            0.00715  -0.00253   0.99997
 This molecule is an asymmetric top.
 Rotational symmetry number  1.
 Warning -- assumption of classical behavior for rotation
           may cause significant error
 Rotational temperatures (Kelvin)      0.08603     0.02193     0.02022
 Rotational constants (GHZ):           1.79252     0.45704     0.42140
 Zero-point vibrational energy     738002.5 (Joules/Mol)
                                  176.38683 (Kcal/Mol)
 Warning -- explicit consideration of  17 degrees of freedom as
           vibrations may cause significant error
 Vibrational temperatures:     99.03   127.73   152.02   244.09   253.55
          (Kelvin)            346.90   371.40   444.80   463.90   519.86
                              557.71   603.98   635.38   661.44   694.82
                              772.62   788.70   938.14  1018.68  1178.48
                             1196.61  1212.82  1259.35  1272.41  1282.59
                             1302.77  1337.24  1362.41  1406.53  1428.14
                             1453.52  1492.58  1514.89  1537.64  1548.85
                             1620.21  1648.01  1657.27  1664.08  1701.91
                             1712.86  1739.77  1754.02  1786.18  1809.31
                             1849.54  1880.74  1901.46  1917.35  1938.56
                             1957.45  1977.64  1984.70  1991.66  2000.58
                             2010.55  2021.77  2027.84  2040.69  2060.56
                             2063.80  2130.97  2132.77  2140.43  2153.35
                             2155.32  2163.30  2172.01  2181.83  4342.25
                             4386.90  4404.95  4406.10  4417.97  4418.11
                             4419.09  4421.11  4426.50  4442.07  4481.67
                             4482.07  4490.47  4493.76  4502.45  4511.20
                             4515.50  4530.39

 Zero-point correction=                           0.281090 (Hartree/Particle)
 Thermal correction to Energy=                    0.292652
 Thermal correction to Enthalpy=                  0.293597
 Thermal correction to Gibbs Free Energy=         0.243776
 Sum of electronic and zero-point Energies=           -617.213843
 Sum of electronic and thermal Energies=              -617.202281
 Sum of electronic and thermal Enthalpies=            -617.201337
 Sum of electronic and thermal Free Energies=         -617.251158

                     E (Thermal)             CV                S
                      KCal/Mol        Cal/Mol-Kelvin    Cal/Mol-Kelvin
 Total                  183.642             46.738            104.856
 Electronic               0.000              0.000              0.000
 Translational            0.889              2.981             41.570
 Rotational               0.889              2.981             31.210
 Vibrational            181.865             40.776             32.076
 Vibration     1          0.598              1.969              4.187
 Vibration     2          0.602              1.957              3.687
 Vibration     3          0.605              1.945              3.347
 Vibration     4          0.625              1.880              2.439
 Vibration     5          0.628              1.872              2.368
 Vibration     6          0.658              1.777              1.795
 Vibration     7          0.667              1.749              1.674
 Vibration     8          0.699              1.656              1.367
 Vibration     9          0.707              1.631              1.298
 Vibration    10          0.735              1.552              1.116
 Vibration    11          0.756              1.497              1.009
 Vibration    12          0.782              1.427              0.893
 Vibration    13          0.801              1.379              0.822
 Vibration    14          0.818              1.339              0.767
 Vibration    15          0.839              1.288              0.702
 Vibration    16          0.892              1.168              0.572
 Vibration    17          0.903              1.144              0.548

 Optimization completed.
    -- Stationary point found.
 Normal termination of Gaussian 16 at Sun Nov  4 23:08:08 2018.
