 Gaussian 16, Revision A.03,
 Gaussian 16:  ES64L-G16RevA.03 25-Dec-2016

 ----------------------------------------------------------------------
 #M062X/6-311++G(2d,2p) opt=ModRedundant freq=noraman SCRF=(Solvent=Wat
 er)
 ----------------------------------------------------------------------

 ----------------------------
 D_1a_4e_D_PHI.inp_extract_25
 ----------------------------
 Symbolic Z-matrix:
 Charge =  0 Multiplicity = 1

 SCF Done:  E(RM062X) =  -617.501863174     A.U. after   12 cycles
 SCF Done:  E(RM062X) =  -617.503365656     A.U. after   10 cycles
 SCF Done:  E(RM062X) =  -617.503464842     A.U. after    9 cycles
 SCF Done:  E(RM062X) =  -617.503480834     A.U. after    9 cycles
 SCF Done:  E(RM062X) =  -617.503484004     A.U. after    8 cycles
 SCF Done:  E(RM062X) =  -617.503484749     A.U. after    8 cycles
 Optimization completed.
    -- Stationary point found.
 Normal termination of Gaussian 16 at Sun Nov  4 21:54:56 2018.

 ----------------------------------------------------------------------
 #N Geom=AllCheck Guess=TCheck SCRF=Check GenChk RM062X/6-311++G(2d,2p)
  Freq
 ----------------------------------------------------------------------

 Structure from the checkpoint file:  "D_1a_4e_D_PHI.inp_extract_25.chk"
 ----------------------------
 D_1a_4e_D_PHI.inp_extract_25
 ----------------------------
 Charge =  0 Multiplicity = 1

                         Standard orientation:
 ---------------------------------------------------------------------
 Center     Atomic      Atomic             Coordinates (Angstroms)
 Number     Number       Type             X           Y           Z
 ---------------------------------------------------------------------
      1          6           0       -3.648659   -0.643973    0.222065
      2          6           0       -1.209256    0.678203   -0.539842
      3          6           0        1.035868   -0.010991   -0.185577
      4          6           0       -3.089448    0.466959    1.109103
      5          8           0        3.020524   -1.362414    0.144157
      6          6           0        3.841868   -0.212972    0.310576
      7          6           0       -2.516373   -1.306298   -0.544450
      8          6           0        1.864397    1.261062   -0.075670
      9          6           0        1.699756   -1.135234    0.596460
     10          6           0        3.307635    0.966535   -0.486240
     11          8           0       -1.780322   -0.354274   -1.314681
     12          8           0       -0.264418    0.157482    0.362512
     13          6           0       -2.266379    1.429135    0.254089
     14          1           0       -4.363266   -0.223719   -0.489853
     15          1           0       -4.172273   -1.396006    0.813051
     16          1           0        0.956907   -0.321306   -1.232935
     17          1           0       -3.892464    1.004250    1.612351
     18          1           0       -2.454416    0.030704    1.882858
     19          1           0        4.837351   -0.499960   -0.020898
     20          1           0        3.890018    0.043677    1.375888
     21          1           0       -1.837671   -1.813871    0.146128
     22          1           0       -2.888772   -2.035561   -1.260255
     23          1           0        1.834711    1.592941    0.965895
     24          1           0        1.436244    2.055295   -0.688064
     25          1           0        3.352294    0.724374   -1.550195
     26          1           0        3.941615    1.837375   -0.319579
     27          1           0       -2.917866    1.936530   -0.459857
     28          1           0       -1.775120    2.189135    0.860504
     29          1           0       -0.719724    1.333678   -1.261700
     30          1           0        1.702427   -0.874678    1.662636
     31          1           0        1.147285   -2.063765    0.465029
 ---------------------------------------------------------------------

 SCF Done:  E(RM062X) =  -617.503484749     A.U. after    1 cycles

 The electronic state is 1-A.
 Alpha  occ. eigenvalues --  -19.63326 -19.63205 -19.62879 -10.63560 -10.58811
 Alpha  occ. eigenvalues --  -10.58151 -10.58109 -10.57680 -10.53353 -10.53266
 Alpha  occ. eigenvalues --  -10.53056 -10.52997 -10.52839  -1.20105  -1.16712
 Alpha  occ. eigenvalues --   -1.13497  -0.90965  -0.89776  -0.87463  -0.84477
 Alpha  occ. eigenvalues --   -0.74873  -0.73747  -0.72846  -0.71136  -0.65823
 Alpha  occ. eigenvalues --   -0.64169  -0.60216  -0.58359  -0.57460  -0.55497
 Alpha  occ. eigenvalues --   -0.54621  -0.53310  -0.51927  -0.50650  -0.49821
 Alpha  occ. eigenvalues --   -0.48384  -0.47834  -0.46125  -0.45533  -0.44340
 Alpha  occ. eigenvalues --   -0.43868  -0.42375  -0.41273  -0.40510  -0.39631
 Alpha  occ. eigenvalues --   -0.38299  -0.38157  -0.36431  -0.34879  -0.33426
 Alpha  occ. eigenvalues --   -0.32144
 Alpha virt. eigenvalues --   -0.00047   0.00766   0.00838   0.01027   0.02139
 Alpha virt. eigenvalues --    0.02460   0.02602   0.03470   0.03612   0.04339
 Alpha virt. eigenvalues --    0.04490   0.04695   0.05565   0.05790   0.07182

 Mulliken charges:
               1
     1  C   -0.346456
     2  C   -0.114449
     3  C   -0.147006
     4  C   -0.313404
     5  O   -0.332556
     6  C   -0.183409
     7  C   -0.143832
     8  C   -0.200162
     9  C   -0.306580
    10  C   -0.375325
    11  O   -0.285182
    12  O   -0.261715
    13  C   -0.343717
    14  H    0.164122
    15  H    0.167521
    16  H    0.270319
    17  H    0.184347
    18  H    0.178505
    19  H    0.209159
    20  H    0.136506
    21  H    0.133355
    22  H    0.204400
    23  H    0.218842
    24  H    0.134711
    25  H    0.165022
    26  H    0.178999
    27  H    0.184454
    28  H    0.170781
    29  H    0.266551
    30  H    0.188722
    31  H    0.197475
 Sum of Mulliken charges =  -0.00000

 Dipole moment (field-independent basis, Debye):
    X=             -0.4078    Y=              2.3828    Z=              0.9999  Tot=              2.6161
 Quadrupole moment (field-independent basis, Debye-Ang):
   XX=            -73.7113   YY=            -79.5978   ZZ=            -83.1634
   XY=              7.6844   XZ=             -1.7173   YZ=             -1.6574

  Exact polarizability: 176.507   3.951 158.620  -1.749  -0.239 150.426
 Approx polarizability: 147.369   2.214 142.290  -0.369   0.038 142.080

                      1                      2                      3
                      A                      A                      A
 Frequencies --     27.5362                44.2453                76.9573
 Red. masses --      4.0957                 3.5853                 3.4786
 Frc consts  --      0.0018                 0.0041                 0.0121
 IR Inten    --      1.3446                 0.3487                 0.7914

                      4                      5                      6
                      A                      A                      A
 Frequencies --    140.5599               183.0269               232.8164
 Red. masses --      3.2570                 3.0861                 3.1199
 Frc consts  --      0.0379                 0.0609                 0.0996
 IR Inten    --      2.7427                 0.3899                 6.4578

                      7                      8                      9
                      A                      A                      A
 Frequencies --    248.3122               280.0194               337.8402
 Red. masses --      2.0182                 2.3721                 2.4087
 Frc consts  --      0.0733                 0.1096                 0.1620
 IR Inten    --      5.0376                 3.8829                 1.9270

                     10                     11                     12
                      A                      A                      A
 Frequencies --    372.4759               405.7177               432.3073
 Red. masses --      2.3661                 2.6373                 3.1364
 Frc consts  --      0.1934                 0.2558                 0.3454
 IR Inten    --     20.8659                 9.4339                 8.1809

                     13                     14                     15
                      A                      A                      A
 Frequencies --    462.4151               463.6180               475.7916
 Red. masses --      3.6873                 3.9032                 2.3089
 Frc consts  --      0.4645                 0.4943                 0.3080
 IR Inten    --      2.4447                 4.8370                 0.2949

                     16                     17                     18
                      A                      A                      A
 Frequencies --    531.1111               579.3584               595.0802
 Red. masses --      2.2216                 3.2257                 2.1002
 Frc consts  --      0.3692                 0.6379                 0.4382
 IR Inten    --      1.8744                15.5833                 3.8045

                     19                     20                     21
                      A                      A                      A
 Frequencies --    726.8674               829.5432               835.4361
 Red. masses --      2.9937                 2.2768                 1.5058
 Frc consts  --      0.9319                 0.9231                 0.6192
 IR Inten    --      6.1840                 0.5641                 3.7892

                     22                     23                     24
                      A                      A                      A
 Frequencies --    844.2471               877.0581               893.0794
 Red. masses --      3.2816                 1.4005                 2.3334
 Frc consts  --      1.3781                 0.6347                 1.0965
 IR Inten    --      9.3348                11.6411                12.2987

                     25                     26                     27
                      A                      A                      A
 Frequencies --    899.0823               905.9480               933.3098
 Red. masses --      2.4365                 2.4340                 1.6517
 Frc consts  --      1.1604                 1.1770                 0.8477
 IR Inten    --     29.6661                23.1049                21.5541

                     28                     29                     30
                      A                      A                      A
 Frequencies --    942.8441               981.1797               998.7176
 Red. masses --      2.1722                 2.3654                 1.4084
 Frc consts  --      1.1377                 1.3417                 0.8277
 IR Inten    --     39.0407                64.9779                17.8333

                     31                     32                     33
                      A                      A                      A
 Frequencies --   1031.1581              1046.3482              1056.4853
 Red. masses --      2.2257                 2.2638                 1.7348
 Frc consts  --      1.3943                 1.4603                 1.1409
 IR Inten    --     38.7897                69.9385                34.3860

                     34                     35                     36
                      A                      A                      A
 Frequencies --   1064.5510              1073.0319              1116.0686
 Red. masses --      1.4952                 2.3553                 4.1833
 Frc consts  --      0.9984                 1.5978                 3.0701
 IR Inten    --     69.1929                27.4258               330.2500

                     37                     38                     39
                      A                      A                      A
 Frequencies --   1150.1217              1155.2441              1165.2830
 Red. masses --      2.6597                 2.7356                 3.8346
 Frc consts  --      2.0728                 2.1510                 3.0679
 IR Inten    --     51.2581               103.5749               156.4075

                     40                     41                     42
                      A                      A                      A
 Frequencies --   1174.7152              1191.7916              1210.3330
 Red. masses --      2.5223                 2.5024                 1.4505
 Frc consts  --      2.0507                 2.0941                 1.2520
 IR Inten    --     14.7668                49.5603                27.4545

                     43                     44                     45
                      A                      A                      A
 Frequencies --   1212.8078              1233.4814              1249.0739
 Red. masses --      1.4385                 1.6368                 1.4904
 Frc consts  --      1.2467                 1.4672                 1.3700
 IR Inten    --      9.0169                59.8125                34.7533

                     46                     47                     48
                      A                      A                      A
 Frequencies --   1287.6283              1303.5261              1318.4573
 Red. masses --      1.2186                 1.1872                 1.1509
 Frc consts  --      1.1904                 1.1885                 1.1787
 IR Inten    --     18.2849                13.4770                 7.1127

                     49                     50                     51
                      A                      A                      A
 Frequencies --   1330.7389              1342.5289              1351.6035
 Red. masses --      1.2867                 1.2435                 1.2392
 Frc consts  --      1.3425                 1.3206                 1.3338
 IR Inten    --      7.8258                 4.4646                23.3895

                     52                     53                     54
                      A                      A                      A
 Frequencies --   1361.1912              1381.5804              1386.5602
 Red. masses --      1.3117                 1.4320                 1.4808
 Frc consts  --      1.4319                 1.6105                 1.6773
 IR Inten    --      3.0575                 7.9439                 2.1987

                     55                     56                     57
                      A                      A                      A
 Frequencies --   1390.6565              1397.6436              1400.4946
 Red. masses --      1.6485                 1.4879                 1.3689
 Frc consts  --      1.8784                 1.7124                 1.5819
 IR Inten    --      8.8434                19.1484                 3.3706

                     58                     59                     60
                      A                      A                      A
 Frequencies --   1408.3066              1418.9977              1430.0126
 Red. masses --      1.3784                 1.3865                 1.3824
 Frc consts  --      1.6108                 1.6449                 1.6656
 IR Inten    --     28.7523                13.6386                13.7295

                     61                     62                     63
                      A                      A                      A
 Frequencies --   1443.7033              1477.2908              1481.3847
 Red. masses --      1.4131                 1.1071                 1.0929
 Frc consts  --      1.7353                 1.4235                 1.4131
 IR Inten    --      4.0543                 4.6114                 7.5273

                     64                     65                     66
                      A                      A                      A
 Frequencies --   1482.8470              1494.7534              1495.1024
 Red. masses --      1.0846                 1.1103                 1.1117
 Frc consts  --      1.4052                 1.4616                 1.4641
 IR Inten    --      8.7856                 7.3417                17.8242

                     67                     68                     69
                      A                      A                      A
 Frequencies --   1502.3217              1509.3896              1515.1133
 Red. masses --      1.0876                 1.0944                 1.1018
 Frc consts  --      1.4462                 1.4690                 1.4902
 IR Inten    --      0.6416                 4.0725                 9.7276

                     70                     71                     72
                      A                      A                      A
 Frequencies --   3017.6927              3022.5011              3044.4102
 Red. masses --      1.0693                 1.0705                 1.0813
 Frc consts  --      5.7370                 5.7618                 5.9048
 IR Inten    --     37.7970                86.4654                25.0052

                     73                     74                     75
                      A                      A                      A
 Frequencies --   3057.0876              3060.2332              3063.7609
 Red. masses --      1.0686                 1.0648                 1.0626
 Frc consts  --      5.8844                 5.8754                 5.8768
 IR Inten    --     37.3406                47.8035                48.4082

                     76                     77                     78
                      A                      A                      A
 Frequencies --   3070.9018              3071.3753              3076.3152
 Red. masses --      1.0623                 1.0635                 1.0630
 Frc consts  --      5.9024                 5.9108                 5.9274
 IR Inten    --     45.8320                22.2494                18.3332

                     79                     80                     81
                      A                      A                      A
 Frequencies --   3093.1884              3111.8476              3113.2877
 Red. masses --      1.0857                 1.0995                 1.0979
 Frc consts  --      6.1205                 6.2732                 6.2700
 IR Inten    --     55.7994                59.8301                31.6057

                     82                     83                     84
                      A                      A                      A
 Frequencies --   3119.1129              3120.9881              3129.1266
 Red. masses --      1.1019                 1.1026                 1.1036
 Frc consts  --      6.3164                 6.3275                 6.3669
 IR Inten    --     61.9350                52.1041                42.5572

                     85                     86                     87
                      A                      A                      A
 Frequencies --   3131.0602              3135.7806              3136.1405
 Red. masses --      1.0953                 1.0992                 1.0951
 Frc consts  --      6.3264                 6.3681                 6.3459
 IR Inten    --     42.6136                42.9880                43.2280

 - Thermochemistry -
 -------------------
 Temperature   298.150 Kelvin.  Pressure   1.00000 Atm.
 Atom     1 has atomic number  6 and mass  12.00000

 Molecular mass:   186.12559 amu.
 Principal axes and moments of inertia in atomic units:
                           1         2         3
     Eigenvalues --   917.859884525.295774846.11372
           X            0.99993   0.01033  -0.00582
           Y           -0.01042   0.99985  -0.01416
           Z            0.00568   0.01422   0.99988
 This molecule is an asymmetric top.
 Rotational symmetry number  1.
 Warning -- assumption of classical behavior for rotation
           may cause significant error
 Rotational temperatures (Kelvin)      0.09437     0.01914     0.01787
 Rotational constants (GHZ):           1.96625     0.39881     0.37241
 Zero-point vibrational energy     736742.0 (Joules/Mol)
                                  176.08556 (Kcal/Mol)
 Warning -- explicit consideration of  18 degrees of freedom as
           vibrations may cause significant error
 Vibrational temperatures:     39.62    63.66   110.72   202.23   263.33
          (Kelvin)            334.97   357.27   402.89   486.08   535.91
                              583.74   621.99   665.31   667.04   684.56
                              764.15   833.57   856.19  1045.80  1193.53
                             1202.01  1214.68  1261.89  1284.94  1293.58
                             1303.46  1342.82  1356.54  1411.70  1436.93
                             1483.61  1505.46  1520.05  1531.65  1543.85
                             1605.77  1654.77  1662.14  1676.58  1690.15
                             1714.72  1741.40  1744.96  1774.70  1797.14
                             1852.61  1875.48  1896.97  1914.64  1931.60
                             1944.66  1958.45  1987.79  1994.95  2000.84
                             2010.90  2015.00  2026.24  2041.62  2057.47
                             2077.17  2125.49  2131.38  2133.49  2150.62
                             2151.12  2161.51  2171.68  2179.91  4341.79
                             4348.70  4380.23  4398.47  4402.99  4408.07
                             4418.34  4419.02  4426.13  4450.41  4477.25
                             4479.33  4487.71  4490.41  4502.12  4504.90
                             4511.69  4512.21

 Zero-point correction=                           0.280610 (Hartree/Particle)
 Thermal correction to Energy=                    0.292430
 Thermal correction to Enthalpy=                  0.293374
 Thermal correction to Gibbs Free Energy=         0.241529
 Sum of electronic and zero-point Energies=           -617.222875
 Sum of electronic and thermal Energies=              -617.211055
 Sum of electronic and thermal Enthalpies=            -617.210111
 Sum of electronic and thermal Free Energies=         -617.261956

                     E (Thermal)             CV                S
                      KCal/Mol        Cal/Mol-Kelvin    Cal/Mol-Kelvin
 Total                  183.502             46.715            109.118
 Electronic               0.000              0.000              0.000
 Translational            0.889              2.981             41.570
 Rotational               0.889              2.981             31.377
 Vibrational            181.725             40.753             36.171
 Vibration     1          0.593              1.984              5.999
 Vibration     2          0.595              1.980              5.059
 Vibration     3          0.599              1.965              3.967
 Vibration     4          0.615              1.913              2.796
 Vibration     5          0.631              1.863              2.297
 Vibration     6          0.654              1.791              1.857
 Vibration     7          0.662              1.766              1.743
 Vibration     8          0.680              1.711              1.534
 Vibration     9          0.718              1.600              1.222
 Vibration    10          0.744              1.529              1.070
 Vibration    11          0.771              1.458              0.942
 Vibration    12          0.793              1.400              0.851
 Vibration    13          0.820              1.333              0.759
 Vibration    14          0.821              1.331              0.756
 Vibration    15          0.832              1.304              0.722
 Vibration    16          0.886              1.181              0.585
 Vibration    17          0.936              1.076              0.487
 Vibration    18          0.953              1.042              0.458

                           ! Non-Optimized Parameters !
 Normal termination of Gaussian 16 at Sun Nov  4 22:49:55 2018.
