 Gaussian 16, Revision A.03,
 Gaussian 16:  ES64L-G16RevA.03 25-Dec-2016

 ----------------------------------------------------------------------
 #M062X/6-311++G(2d,2p) opt=ModRedundant freq=noraman SCRF=(Solvent=Wat
 er)
 ----------------------------------------------------------------------

 ----------------------------
 D_1a_4e_D_PHI.inp_extract_17
 ----------------------------
 Symbolic Z-matrix:
 Charge =  0 Multiplicity = 1

 SCF Done:  E(RM062X) =  -617.479144849     A.U. after   12 cycles
 SCF Done:  E(RM062X) =  -617.473193582     A.U. after   12 cycles
 SCF Done:  E(RM062X) =  -617.480298947     A.U. after   12 cycles
 SCF Done:  E(RM062X) =  -617.481180438     A.U. after   10 cycles
 SCF Done:  E(RM062X) =  -617.481351231     A.U. after   10 cycles
 SCF Done:  E(RM062X) =  -617.481295995     A.U. after   10 cycles
 SCF Done:  E(RM062X) =  -617.481353297     A.U. after   10 cycles
 SCF Done:  E(RM062X) =  -617.481383306     A.U. after    9 cycles
 SCF Done:  E(RM062X) =  -617.481384329     A.U. after    7 cycles
 Optimization completed.
    -- Stationary point found.
 Normal termination of Gaussian 16 at Sun Nov  4 22:13:39 2018.

 ----------------------------------------------------------------------
 #N Geom=AllCheck Guess=TCheck SCRF=Check GenChk RM062X/6-311++G(2d,2p)
  Freq
 ----------------------------------------------------------------------

 Structure from the checkpoint file:  "D_1a_4e_D_PHI.inp_extract_17.chk"
 ----------------------------
 D_1a_4e_D_PHI.inp_extract_17
 ----------------------------
 Charge =  0 Multiplicity = 1

                         Standard orientation:
 ---------------------------------------------------------------------
 Center     Atomic      Atomic             Coordinates (Angstroms)
 Number     Number       Type             X           Y           Z
 ---------------------------------------------------------------------
      1          6           0       -2.575771    1.315314    0.755279
      2          6           0       -1.489798   -1.217010   -0.171939
      3          6           0        0.979079   -0.738267   -0.655763
      4          6           0       -2.495645    1.055276   -0.744871
      5          8           0        2.904022   -0.586765    0.770570
      6          6           0        3.076317    0.794990    0.481765
      7          6           0       -1.431418    0.610980    1.458520
      8          6           0        1.115588    0.720659   -1.075950
      9          6           0        1.530535   -0.948992    0.756714
     10          6           0        2.581790    1.134882   -0.916479
     11          8           0       -1.338600   -0.783832    1.150015
     12          8           0       -0.277504   -1.341031   -0.920694
     13          6           0       -2.543334   -0.450282   -0.965845
     14          1           0       -3.527847    0.942448    1.139786
     15          1           0       -2.519239    2.379307    0.985330
     16          1           0        1.650322   -1.308286   -1.304453
     17          1           0       -3.323723    1.533183   -1.266780
     18          1           0       -1.574879    1.475600   -1.152813
     19          1           0        4.139640    0.999951    0.586351
     20          1           0        2.534224    1.389157    1.228293
     21          1           0       -0.489691    1.106846    1.218380
     22          1           0       -1.551910    0.645877    2.539311
     23          1           0        0.494384    1.366803   -0.456658
     24          1           0        0.784405    0.836575   -2.108620
     25          1           0        3.197233    0.604721   -1.646236
     26          1           0        2.702977    2.203249   -1.096441
     27          1           0       -3.519103   -0.817729   -0.639308
     28          1           0       -2.427289   -0.717996   -2.014435
     29          1           0       -1.820538   -2.250971   -0.073388
     30          1           0        0.995840   -0.360329    1.503072
     31          1           0        1.467790   -2.000692    1.030903
 ---------------------------------------------------------------------

 SCF Done:  E(RM062X) =  -617.481384329     A.U. after    1 cycles

 The electronic state is 1-A.
 Alpha  occ. eigenvalues --  -19.63835 -19.62969 -19.62391 -10.64028 -10.59049
 Alpha  occ. eigenvalues --  -10.58440 -10.58062 -10.57821 -10.53320 -10.53278
 Alpha  occ. eigenvalues --  -10.53227 -10.53183 -10.53114  -1.19294  -1.16438
 Alpha  occ. eigenvalues --   -1.13264  -0.90960  -0.90476  -0.87573  -0.84542
 Alpha  occ. eigenvalues --   -0.75444  -0.74197  -0.73777  -0.70441  -0.67376
 Alpha  occ. eigenvalues --   -0.62307  -0.59803  -0.58674  -0.56721  -0.56227
 Alpha  occ. eigenvalues --   -0.53772  -0.53321  -0.51781  -0.51613  -0.50430
 Alpha  occ. eigenvalues --   -0.49395  -0.47162  -0.46140  -0.45599  -0.45179
 Alpha  occ. eigenvalues --   -0.43770  -0.42381  -0.41040  -0.40388  -0.39263
 Alpha  occ. eigenvalues --   -0.38706  -0.37547  -0.36593  -0.34770  -0.33440
 Alpha  occ. eigenvalues --   -0.31026
 Alpha virt. eigenvalues --   -0.00217   0.00691   0.00790   0.01038   0.02349
 Alpha virt. eigenvalues --    0.02644   0.02714   0.03174   0.03304   0.04861
 Alpha virt. eigenvalues --    0.05132   0.05464   0.05700   0.06057   0.06966

 Mulliken charges:
               1
     1  C   -0.389516
     2  C   -0.046162
     3  C   -0.542546
     4  C   -0.316900
     5  O   -0.329573
     6  C   -0.206569
     7  C   -0.225703
     8  C   -0.074296
     9  C   -0.251501
    10  C   -0.364863
    11  O   -0.285361
    12  O   -0.265597
    13  C   -0.265066
    14  H    0.175743
    15  H    0.184590
    16  H    0.250280
    17  H    0.214181
    18  H    0.153233
    19  H    0.222760
    20  H    0.126088
    21  H    0.159437
    22  H    0.217801
    23  H    0.214831
    24  H    0.212324
    25  H    0.182119
    26  H    0.167041
    27  H    0.195399
    28  H    0.183482
    29  H    0.239360
    30  H    0.251470
    31  H    0.213511
 Sum of Mulliken charges =  -0.00000

 Dipole moment (field-independent basis, Debye):
    X=             -2.0204    Y=              3.9748    Z=             -0.5054  Tot=              4.4873
 Quadrupole moment (field-independent basis, Debye-Ang):
   XX=            -79.6120   YY=            -80.0729   ZZ=            -81.9246
   XY=              3.6132   XZ=             -2.5970   YZ=              1.5926

  Exact polarizability: 171.371   3.439 158.700  -0.341   1.959 155.771
 Approx polarizability: 147.545   2.189 144.860  -1.936   2.048 141.838

 ******    1 imaginary frequencies (negative Signs) ******

                      1                      2                      3
                      A                      A                      A
 Frequencies --    -72.4214                83.7397               102.8050
 Red. masses --      4.2264                 2.9746                 3.3127
 Frc consts  --      0.0131                 0.0123                 0.0206
 IR Inten    --      5.4511                 0.1777                 0.5532

                      4                      5                      6
                      A                      A                      A
 Frequencies --    126.0683               197.0460               211.3393
 Red. masses --      3.5088                 4.4924                 2.5997
 Frc consts  --      0.0329                 0.1028                 0.0684
 IR Inten    --      3.4045                 4.3940                 4.3670

                      7                      8                      9
                      A                      A                      A
 Frequencies --    264.6152               280.3840               314.8032
 Red. masses --      2.0106                 3.4365                 2.5745
 Frc consts  --      0.0829                 0.1592                 0.1503
 IR Inten    --      4.0013                 9.8500                 8.4095

                     10                     11                     12
                      A                      A                      A
 Frequencies --    364.5386               374.3861               421.6048
 Red. masses --      2.3386                 2.7081                 2.6474
 Frc consts  --      0.1831                 0.2236                 0.2773
 IR Inten    --      3.1237                12.8636                 2.9660

                     13                     14                     15
                      A                      A                      A
 Frequencies --    430.9972               456.4609               473.1983
 Red. masses --      3.3898                 3.0815                 2.8030
 Frc consts  --      0.3710                 0.3783                 0.3698
 IR Inten    --      6.5666                 1.0333                 0.2845

                     16                     17                     18
                      A                      A                      A
 Frequencies --    523.5987               559.6703               629.1905
 Red. masses --      2.3779                 1.9333                 3.7565
 Frc consts  --      0.3841                 0.3568                 0.8762
 IR Inten    --      0.6254                11.6488                 8.2905

                     19                     20                     21
                      A                      A                      A
 Frequencies --    702.4231               793.6736               823.5868
 Red. masses --      3.2743                 2.1403                 2.1870
 Frc consts  --      0.9518                 0.7943                 0.8740
 IR Inten    --      5.8115                 9.4365                 0.8903

                     22                     23                     24
                      A                      A                      A
 Frequencies --    843.7597               872.0846               877.6425
 Red. masses --      2.2465                 2.2191                 1.5095
 Frc consts  --      0.9423                 0.9944                 0.6850
 IR Inten    --      6.2943                14.1573                16.1012

                     25                     26                     27
                      A                      A                      A
 Frequencies --    891.4475               902.1974               926.6347
 Red. masses --      2.3310                 2.4493                 1.9326
 Frc consts  --      1.0914                 1.1746                 0.9777
 IR Inten    --     12.6487                40.1487                38.9395

                     28                     29                     30
                      A                      A                      A
 Frequencies --    941.1208               953.5526               988.5982
 Red. masses --      2.3837                 1.7326                 1.5220
 Frc consts  --      1.2439                 0.9282                 0.8764
 IR Inten    --     40.4833                26.8534                 9.1084

                     31                     32                     33
                      A                      A                      A
 Frequencies --   1015.4722              1041.3043              1048.0883
 Red. masses --      2.3965                 2.3250                 1.7626
 Frc consts  --      1.4560                 1.4853                 1.1408
 IR Inten    --     44.3067                35.5507                55.7795

                     34                     35                     36
                      A                      A                      A
 Frequencies --   1069.0577              1078.0651              1118.9206
 Red. masses --      1.5480                 2.0296                 2.6377
 Frc consts  --      1.0424                 1.3898                 1.9457
 IR Inten    --     52.5789                34.7111               122.7979

                     37                     38                     39
                      A                      A                      A
 Frequencies --   1137.0469              1150.4054              1159.3302
 Red. masses --      3.0454                 2.9232                 2.8267
 Frc consts  --      2.3198                 2.2794                 2.2384
 IR Inten    --    167.2978                73.3218                42.8955

                     40                     41                     42
                      A                      A                      A
 Frequencies --   1177.3834              1200.9255              1203.8048
 Red. masses --      2.6204                 2.3326                 1.3969
 Frc consts  --      2.1402                 1.9821                 1.1927
 IR Inten    --     83.6665               171.8811                11.8155

                     43                     44                     45
                      A                      A                      A
 Frequencies --   1212.3814              1243.8710              1254.0154
 Red. masses --      1.4179                 1.7163                 1.8723
 Frc consts  --      1.2279                 1.5645                 1.7348
 IR Inten    --     40.2139               106.2388                43.5516

                     46                     47                     48
                      A                      A                      A
 Frequencies --   1295.8955              1302.2976              1322.9852
 Red. masses --      1.2245                 1.1835                 1.1867
 Frc consts  --      1.2116                 1.1826                 1.2238
 IR Inten    --     19.0099                19.4163                19.4465

                     49                     50                     51
                      A                      A                      A
 Frequencies --   1335.7486              1342.0098              1363.0763
 Red. masses --      1.3066                 1.2872                 1.3699
 Frc consts  --      1.3735                 1.3659                 1.4996
 IR Inten    --     19.0073                11.6034                 3.6437

                     52                     53                     54
                      A                      A                      A
 Frequencies --   1374.1758              1381.9936              1390.5626
 Red. masses --      1.3470                 1.4108                 1.4844
 Frc consts  --      1.4987                 1.5876                 1.6912
 IR Inten    --     38.3517                 1.3490                 7.3644

                     55                     56                     57
                      A                      A                      A
 Frequencies --   1394.0693              1404.1626              1413.7816
 Red. masses --      1.6543                 1.3202                 1.3319
 Frc consts  --      1.8943                 1.5337                 1.5685
 IR Inten    --     17.6223                 7.2531                 1.9333

                     58                     59                     60
                      A                      A                      A
 Frequencies --   1421.3783              1433.1253              1435.0691
 Red. masses --      1.3263                 1.3271                 1.2197
 Frc consts  --      1.5787                 1.6059                 1.4799
 IR Inten    --      5.5061                10.2124                 3.8199

                     61                     62                     63
                      A                      A                      A
 Frequencies --   1453.9181              1475.4202              1482.6976
 Red. masses --      1.2446                 1.0970                 1.0930
 Frc consts  --      1.5501                 1.4070                 1.4157
 IR Inten    --      8.9527                 5.3304                 3.7005

                     64                     65                     66
                      A                      A                      A
 Frequencies --   1487.2799              1493.4197              1500.7727
 Red. masses --      1.0912                 1.1130                 1.0875
 Frc consts  --      1.4221                 1.4626                 1.4431
 IR Inten    --     11.0307                21.2389                 0.6843

                     67                     68                     69
                      A                      A                      A
 Frequencies --   1505.6433              1515.1248              1529.0009
 Red. masses --      1.1032                 1.1027                 1.0952
 Frc consts  --      1.4735                 1.4915                 1.5086
 IR Inten    --      2.7026                 5.9514                 7.2779

                     70                     71                     72
                      A                      A                      A
 Frequencies --   3015.5342              3052.5596              3064.6714
 Red. masses --      1.0709                 1.0835                 1.0655
 Frc consts  --      5.7373                 5.9484                 5.8964
 IR Inten    --     73.2660                23.7518                20.6326

                     73                     74                     75
                      A                      A                      A
 Frequencies --   3066.3801              3070.2711              3076.5687
 Red. masses --      1.0694                 1.0625                 1.0617
 Frc consts  --      5.9244                 5.9011                 5.9208
 IR Inten    --      8.2057                37.3025                92.0154

                     76                     77                     78
                      A                      A                      A
 Frequencies --   3084.0029              3087.3563              3088.4099
 Red. masses --      1.0608                 1.0747                 1.0679
 Frc consts  --      5.9443                 6.0357                 6.0016
 IR Inten    --     28.3580               132.8487                33.4560

                     79                     80                     81
                      A                      A                      A
 Frequencies --   3092.6519              3117.6662              3118.2938
 Red. masses --      1.0645                 1.1008                 1.0969
 Frc consts  --      5.9989                 6.3042                 6.2845
 IR Inten    --      5.4723                26.5333                42.2459

                     82                     83                     84
                      A                      A                      A
 Frequencies --   3123.9584              3130.0452              3133.4258
 Red. masses --      1.1027                 1.1006                 1.0945
 Frc consts  --      6.3402                 6.3531                 6.3317
 IR Inten    --     44.7467                83.2283                58.3759

                     85                     86                     87
                      A                      A                      A
 Frequencies --   3134.4934              3140.7996              3145.1255
 Red. masses --      1.0983                 1.1044                 1.1034
 Frc consts  --      6.3580                 6.4191                 6.4305
 IR Inten    --     24.7466                 6.7928                59.8220

 - Thermochemistry -
 -------------------
 Temperature   298.150 Kelvin.  Pressure   1.00000 Atm.
 Atom     1 has atomic number  6 and mass  12.00000

 Molecular mass:   186.12559 amu.
 Principal axes and moments of inertia in atomic units:
                           1         2         3
     Eigenvalues --  1256.537543457.156683521.94026
           X            0.99999   0.00286  -0.00216
           Y           -0.00281   0.99973   0.02322
           Z            0.00223  -0.02321   0.99973
 This molecule is an asymmetric top.
 Rotational symmetry number  1.
 Warning -- assumption of classical behavior for rotation
           may cause significant error
 Rotational temperatures (Kelvin)      0.06893     0.02505     0.02459
 Rotational constants (GHZ):           1.43628     0.52203     0.51243
    1 imaginary frequencies ignored.
 Zero-point vibrational energy     737121.3 (Joules/Mol)
                                  176.17623 (Kcal/Mol)
 Warning -- explicit consideration of  16 degrees of freedom as
           vibrations may cause significant error
 Vibrational temperatures:    120.48   147.91   181.38   283.51   304.07
          (Kelvin)            380.72   403.41   452.93   524.49   538.66
                              606.60   620.11   656.75   680.83   753.34
                              805.24   905.26  1010.63  1141.92  1184.96
                             1213.98  1254.74  1262.73  1282.59  1298.06
                             1333.22  1354.06  1371.95  1422.37  1461.04
                             1498.20  1507.97  1538.14  1551.10  1609.88
                             1635.96  1655.18  1668.02  1693.99  1727.86
                             1732.01  1744.35  1789.65  1804.25  1864.50
                             1873.72  1903.48  1921.84  1930.85  1961.16
                             1977.13  1988.38  2000.71  2005.75  2020.28
                             2034.12  2045.05  2061.95  2064.74  2091.86
                             2122.80  2133.27  2139.86  2148.70  2159.28
                             2166.28  2179.93  2199.89  4338.68  4391.95
                             4409.38  4411.84  4417.44  4426.50  4437.19
                             4442.02  4443.53  4449.64  4485.63  4486.53
                             4494.68  4503.44  4508.30  4509.84  4518.91
                             4525.13

 Zero-point correction=                           0.280755 (Hartree/Particle)
 Thermal correction to Energy=                    0.291719
 Thermal correction to Enthalpy=                  0.292663
 Thermal correction to Gibbs Free Energy=         0.244351
 Sum of electronic and zero-point Energies=           -617.200630
 Sum of electronic and thermal Energies=              -617.189666
 Sum of electronic and thermal Enthalpies=            -617.188721
 Sum of electronic and thermal Free Energies=         -617.237033

                     E (Thermal)             CV                S
                      KCal/Mol        Cal/Mol-Kelvin    Cal/Mol-Kelvin
 Total                  183.056             45.121            101.681
 Electronic               0.000              0.000              0.000
 Translational            0.889              2.981             41.570
 Rotational               0.889              2.981             31.104
 Vibrational            181.279             39.159             29.007
 Vibration     1          0.601              1.960              3.801
 Vibration     2          0.605              1.947              3.400
 Vibration     3          0.611              1.927              3.005
 Vibration     4          0.636              1.844              2.161
 Vibration     5          0.643              1.824              2.032
 Vibration     6          0.671              1.738              1.631
 Vibration     7          0.680              1.710              1.531
 Vibration     8          0.702              1.645              1.337
 Vibration     9          0.738              1.545              1.103
 Vibration    10          0.746              1.525              1.062
 Vibration    11          0.784              1.423              0.887
 Vibration    12          0.792              1.403              0.855
 Vibration    13          0.815              1.347              0.776
 Vibration    14          0.830              1.310              0.729
 Vibration    15          0.879              1.198              0.602
 Vibration    16          0.915              1.119              0.524

                           ! Non-Optimized Parameters !
 Normal termination of Gaussian 16 at Sun Nov  4 23:09:07 2018.
