 Gaussian 16, Revision A.03,
 Gaussian 16:  ES64L-G16RevA.03 25-Dec-2016

 ----------------------------------------------------------------------
 #M062X/6-311++G(2d,2p) opt=ModRedundant freq=noraman SCRF=(Solvent=Wat
 er)
 ----------------------------------------------------------------------

 ---------------------------
 D_1a_4e_D_PHI.inp_extract_7
 ---------------------------
 Symbolic Z-matrix:
 Charge =  0 Multiplicity = 1

 SCF Done:  E(RM062X) =  -617.489493111     A.U. after   12 cycles
 SCF Done:  E(RM062X) =  -617.489193313     A.U. after   11 cycles
 SCF Done:  E(RM062X) =  -617.490512505     A.U. after   11 cycles
 SCF Done:  E(RM062X) =  -617.491474574     A.U. after   11 cycles
 SCF Done:  E(RM062X) =  -617.491745805     A.U. after   11 cycles
 SCF Done:  E(RM062X) =  -617.491774378     A.U. after   10 cycles
 SCF Done:  E(RM062X) =  -617.491786147     A.U. after    9 cycles
 SCF Done:  E(RM062X) =  -617.491786490     A.U. after    7 cycles
 Optimization completed.
    -- Stationary point found.
 Normal termination of Gaussian 16 at Sun Nov  4 22:07:48 2018.

 ----------------------------------------------------------------------
 #N Geom=AllCheck Guess=TCheck SCRF=Check GenChk RM062X/6-311++G(2d,2p)
  Freq
 ----------------------------------------------------------------------

 Structure from the checkpoint file:  "D_1a_4e_D_PHI.inp_extract_7.chk"
 ---------------------------
 D_1a_4e_D_PHI.inp_extract_7
 ---------------------------
 Charge =  0 Multiplicity = 1

                         Standard orientation:
 ---------------------------------------------------------------------
 Center     Atomic      Atomic             Coordinates (Angstroms)
 Number     Number       Type             X           Y           Z
 ---------------------------------------------------------------------
      1          6           0        3.221816    1.046430    0.081612
      2          6           0        1.202605   -1.033212    0.364839
      3          6           0       -1.015376   -0.524046   -0.644351
      4          6           0        1.859832    1.410135    0.665044
      5          8           0       -2.611753    1.262398   -0.774497
      6          6           0       -3.371871    0.740640    0.309245
      7          6           0        3.050891   -0.137372   -0.850651
      8          6           0       -1.800655   -1.202480    0.474749
      9          6           0       -1.229402    0.990785   -0.614409
     10          6           0       -3.267425   -0.774687    0.376707
     11          8           0        2.484044   -1.251976   -0.161809
     12          8           0        0.335785   -0.948185   -0.757700
     13          6           0        1.226796    0.173799    1.303633
     14          1           0        3.915058    0.776393    0.881395
     15          1           0        3.652558    1.885017   -0.465900
     16          1           0       -1.457126   -0.852304   -1.588849
     17          1           0        1.948354    2.202337    1.407938
     18          1           0        1.229004    1.793194   -0.138002
     19          1           0       -4.398471    1.060195    0.144221
     20          1           0       -3.015936    1.186933    1.246044
     21          1           0        2.413375    0.131997   -1.696421
     22          1           0        4.004361   -0.492277   -1.235040
     23          1           0       -1.406388   -0.915892    1.451951
     24          1           0       -1.703643   -2.284952    0.385797
     25          1           0       -3.715555   -1.198518   -0.524203
     26          1           0       -3.834243   -1.142392    1.232123
     27          1           0        1.837509   -0.135205    2.155210
     28          1           0        0.235269    0.382751    1.696633
     29          1           0        0.961124   -1.936564    0.928962
     30          1           0       -0.884268    1.441168    0.319469
     31          1           0       -0.708858    1.460279   -1.447791
 ---------------------------------------------------------------------

 SCF Done:  E(RM062X) =  -617.491786490     A.U. after    1 cycles

 The electronic state is 1-A.
 Alpha  occ. eigenvalues --  -19.63262 -19.63135 -19.63120 -10.64003 -10.59206
 Alpha  occ. eigenvalues --  -10.58222 -10.58184 -10.57798 -10.53535 -10.53437
 Alpha  occ. eigenvalues --  -10.53413 -10.53265 -10.52916  -1.19895  -1.16771
 Alpha  occ. eigenvalues --   -1.13311  -0.90414  -0.90348  -0.87368  -0.85259
 Alpha  occ. eigenvalues --   -0.75201  -0.74097  -0.73517  -0.70824  -0.67168
 Alpha  occ. eigenvalues --   -0.62992  -0.59710  -0.58770  -0.56974  -0.55872
 Alpha  occ. eigenvalues --   -0.55340  -0.53446  -0.52041  -0.50421  -0.49708
 Alpha  occ. eigenvalues --   -0.49506  -0.47820  -0.46213  -0.45898  -0.44860
 Alpha  occ. eigenvalues --   -0.44284  -0.43177  -0.40684  -0.40083  -0.39293
 Alpha  occ. eigenvalues --   -0.38121  -0.37691  -0.37261  -0.35621  -0.33329
 Alpha  occ. eigenvalues --   -0.31359
 Alpha virt. eigenvalues --   -0.00111   0.00762   0.00858   0.01009   0.02289
 Alpha virt. eigenvalues --    0.02527   0.02728   0.03397   0.03548   0.04572
 Alpha virt. eigenvalues --    0.04878   0.04904   0.05845   0.06053   0.07268

 Mulliken charges:
               1
     1  C   -0.356003
     2  C   -0.129327
     3  C   -0.338241
     4  C   -0.255358
     5  O   -0.346859
     6  C   -0.154615
     7  C   -0.228356
     8  C   -0.147250
     9  C   -0.289018
    10  C   -0.395634
    11  O   -0.300822
    12  O   -0.369924
    13  C   -0.293510
    14  H    0.170076
    15  H    0.166928
    16  H    0.263924
    17  H    0.190366
    18  H    0.162801
    19  H    0.220515
    20  H    0.128179
    21  H    0.170416
    22  H    0.220647
    23  H    0.188808
    24  H    0.189877
    25  H    0.176073
    26  H    0.170922
    27  H    0.234412
    28  H    0.198278
    29  H    0.275697
    30  H    0.238539
    31  H    0.238455
 Sum of Mulliken charges =  -0.00000

 Dipole moment (field-independent basis, Debye):
    X=             -0.9044    Y=              1.2936    Z=              2.9548  Tot=              3.3500
 Quadrupole moment (field-independent basis, Debye-Ang):
   XX=            -77.8011   YY=            -84.7644   ZZ=            -79.9179
   XY=             10.8295   XZ=             -4.6250   YZ=             -0.4676

  Exact polarizability: 178.022   2.248 154.489  -2.931  -1.511 151.618
 Approx polarizability: 150.349  -0.019 139.887  -0.359  -1.727 143.172

                      1                      2                      3
                      A                      A                      A
 Frequencies --     66.7890                96.2665               114.8082
 Red. masses --      4.0320                 3.0850                 3.4784
 Frc consts  --      0.0106                 0.0168                 0.0270
 IR Inten    --      1.9432                 1.9067                 1.6173

                      4                      5                      6
                      A                      A                      A
 Frequencies --    167.6506               175.6396               242.8129
 Red. masses --      3.0089                 3.2239                 3.3258
 Frc consts  --      0.0498                 0.0586                 0.1155
 IR Inten    --      0.7044                 3.8550                 0.1310

                      7                      8                      9
                      A                      A                      A
 Frequencies --    261.9003               308.1910               324.2646
 Red. masses --      1.9660                 2.3721                 4.0744
 Frc consts  --      0.0795                 0.1327                 0.2524
 IR Inten    --      4.0219                 3.9080                 9.6816

                     10                     11                     12
                      A                      A                      A
 Frequencies --    363.6012               382.5222               419.5967
 Red. masses --      2.2963                 3.2095                 2.3785
 Frc consts  --      0.1789                 0.2767                 0.2467
 IR Inten    --      6.3000                24.4589                 5.4378

                     13                     14                     15
                      A                      A                      A
 Frequencies --    440.2071               462.2695               480.6497
 Red. masses --      3.5127                 3.4372                 2.7514
 Frc consts  --      0.4011                 0.4328                 0.3745
 IR Inten    --      2.4268                 0.5097                 2.8150

                     16                     17                     18
                      A                      A                      A
 Frequencies --    539.1621               552.4430               661.7354
 Red. masses --      2.2210                 1.8228                 3.1446
 Frc consts  --      0.3804                 0.3278                 0.8113
 IR Inten    --      2.9381                 3.3514                 7.0239

                     19                     20                     21
                      A                      A                      A
 Frequencies --    703.1907               813.3261               829.1459
 Red. masses --      3.3095                 2.1789                 1.9971
 Frc consts  --      0.9642                 0.8492                 0.8089
 IR Inten    --      7.5600                 2.2990                 2.1316

                     22                     23                     24
                      A                      A                      A
 Frequencies --    841.3669               872.4752               884.2339
 Red. masses --      2.4333                 1.4261                 2.3802
 Frc consts  --      1.0149                 0.6396                 1.0965
 IR Inten    --      2.4094                14.1494                10.7027

                     25                     26                     27
                      A                      A                      A
 Frequencies --    891.0264               904.5184               931.6862
 Red. masses --      2.4034                 2.2714                 1.8290
 Frc consts  --      1.1242                 1.0949                 0.9354
 IR Inten    --     16.9861                43.2903                25.8752

                     28                     29                     30
                      A                      A                      A
 Frequencies --    945.0123               973.1160               994.4960
 Red. masses --      2.4110                 2.0027                 1.6058
 Frc consts  --      1.2686                 1.1173                 0.9357
 IR Inten    --     43.4025                56.6294                 4.0607

                     31                     32                     33
                      A                      A                      A
 Frequencies --   1011.1062              1036.9590              1051.4991
 Red. masses --      2.1098                 2.1932                 1.7508
 Frc consts  --      1.2708                 1.3895                 1.1405
 IR Inten    --     28.4183                54.7809                31.3926

                     34                     35                     36
                      A                      A                      A
 Frequencies --   1071.0743              1075.4453              1122.4642
 Red. masses --      2.0575                 1.5830                 2.6889
 Frc consts  --      1.3907                 1.0787                 1.9960
 IR Inten    --     56.4540                41.4424               226.2330

                     37                     38                     39
                      A                      A                      A
 Frequencies --   1143.9678              1153.2310              1158.7442
 Red. masses --      3.2429                 2.5452                 3.3680
 Frc consts  --      2.5004                 1.9943                 2.6644
 IR Inten    --     26.0199               124.0670               116.8399

                     40                     41                     42
                      A                      A                      A
 Frequencies --   1188.3012              1191.5068              1210.1929
 Red. masses --      2.7637                 2.6213                 1.4836
 Frc consts  --      2.2993                 2.1926                 1.2802
 IR Inten    --     74.9928                81.0855                96.9659

                     43                     44                     45
                      A                      A                      A
 Frequencies --   1222.8542              1242.8053              1257.5920
 Red. masses --      1.4563                 1.7910                 1.6197
 Frc consts  --      1.2830                 1.6299                 1.5093
 IR Inten    --      9.3883                42.3548                26.1087

                     46                     47                     48
                      A                      A                      A
 Frequencies --   1289.5480              1306.9151              1320.7049
 Red. masses --      1.2138                 1.1795                 1.1641
 Frc consts  --      1.1893                 1.1870                 1.1964
 IR Inten    --     12.6184                22.6285                 4.3898

                     49                     50                     51
                      A                      A                      A
 Frequencies --   1337.3754              1345.6316              1364.0755
 Red. masses --      1.2965                 1.2849                 1.3250
 Frc consts  --      1.3662                 1.3708                 1.4526
 IR Inten    --     12.3220                 4.7719                 4.2080

                     52                     53                     54
                      A                      A                      A
 Frequencies --   1379.4024              1381.6314              1385.2257
 Red. masses --      1.2875                 1.3969                 1.4059
 Frc consts  --      1.4434                 1.5711                 1.5895
 IR Inten    --     31.0464                19.6831                 2.6495

                     55                     56                     57
                      A                      A                      A
 Frequencies --   1391.5291              1395.5284              1404.6817
 Red. masses --      1.4643                 1.3475                 1.3529
 Frc consts  --      1.6706                 1.5462                 1.5728
 IR Inten    --      5.6060                 6.5255                11.8534

                     58                     59                     60
                      A                      A                      A
 Frequencies --   1411.4234              1418.7120              1432.2807
 Red. masses --      1.3297                 1.4116                 1.3840
 Frc consts  --      1.5607                 1.6740                 1.6728
 IR Inten    --      5.5030                 7.2258                12.2509

                     61                     62                     63
                      A                      A                      A
 Frequencies --   1436.9856              1480.9748              1482.0853
 Red. masses --      1.3383                 1.0951                 1.0945
 Frc consts  --      1.6282                 1.4151                 1.4164
 IR Inten    --     12.4686                 8.4820                 1.7362

                     64                     65                     66
                      A                      A                      A
 Frequencies --   1489.1077              1496.4761              1500.7123
 Red. masses --      1.0852                 1.1133                 1.1017
 Frc consts  --      1.4179                 1.4689                 1.4618
 IR Inten    --      6.3582                12.0986                13.4477

                     67                     68                     69
                      A                      A                      A
 Frequencies --   1504.7762              1510.7470              1520.7253
 Red. masses --      1.0881                 1.0949                 1.0985
 Frc consts  --      1.4516                 1.4724                 1.4967
 IR Inten    --      0.9812                 3.6190                14.9345

                     70                     71                     72
                      A                      A                      A
 Frequencies --   3018.3266              3058.5612              3061.8606
 Red. masses --      1.0708                 1.0786                 1.0679
 Frc consts  --      5.7477                 5.9452                 5.8984
 IR Inten    --     67.7658                 8.0956                42.2249

                     73                     74                     75
                      A                      A                      A
 Frequencies --   3067.3565              3068.2962              3069.7628
 Red. masses --      1.0695                 1.0616                 1.0715
 Frc consts  --      5.9288                 5.8886                 5.9492
 IR Inten    --     17.0546                41.5072                90.5641

                     76                     77                     78
                      A                      A                      A
 Frequencies --   3071.6100              3074.6114              3080.9013
 Red. masses --      1.0637                 1.0637                 1.0781
 Frc consts  --      5.9129                 5.9244                 6.0290
 IR Inten    --      1.3244                65.1952                71.5231

                     79                     80                     81
                      A                      A                      A
 Frequencies --   3084.5244              3115.1838              3116.1551
 Red. masses --      1.0607                 1.1011                 1.0997
 Frc consts  --      5.9458                 6.2955                 6.2918
 IR Inten    --     46.3097                39.1464                25.6827

                     82                     83                     84
                      A                      A                      A
 Frequencies --   3123.2213              3126.9767              3132.5242
 Red. masses --      1.1037                 1.1028                 1.1030
 Frc consts  --      6.3433                 6.3531                 6.3770
 IR Inten    --     48.8278                69.5629                23.6183

                     85                     86                     87
                      A                      A                      A
 Frequencies --   3135.8090              3136.0719              3157.2597
 Red. masses --      1.0965                 1.0997                 1.0910
 Frc consts  --      6.3525                 6.3724                 6.4075
 IR Inten    --     85.1956                13.6862                35.4637

 - Thermochemistry -
 -------------------
 Temperature   298.150 Kelvin.  Pressure   1.00000 Atm.
 Atom     1 has atomic number  6 and mass  12.00000

 Molecular mass:   186.12559 amu.
 Principal axes and moments of inertia in atomic units:
                           1         2         3
     Eigenvalues --  1037.523803857.006384205.33561
           X            0.99974   0.02186  -0.00706
           Y           -0.02187   0.99976  -0.00095
           Z            0.00704   0.00111   0.99997
 This molecule is an asymmetric top.
 Rotational symmetry number  1.
 Warning -- assumption of classical behavior for rotation
           may cause significant error
 Rotational temperatures (Kelvin)      0.08348     0.02246     0.02060
 Rotational constants (GHZ):           1.73947     0.46791     0.42916
 Zero-point vibrational energy     738503.3 (Joules/Mol)
                                  176.50653 (Kcal/Mol)
 Warning -- explicit consideration of  17 degrees of freedom as
           vibrations may cause significant error
 Vibrational temperatures:     96.09   138.51   165.18   241.21   252.71
          (Kelvin)            349.35   376.82   443.42   466.54   523.14
                              550.36   603.71   633.36   665.10   691.55
                              775.73   794.84   952.09  1011.73  1170.19
                             1192.96  1210.54  1255.30  1272.22  1281.99
                             1301.40  1340.49  1359.66  1400.10  1430.86
                             1454.76  1491.95  1512.87  1541.04  1547.33
                             1614.98  1645.91  1659.24  1667.17  1709.70
                             1714.31  1741.20  1759.41  1788.12  1809.39
                             1855.37  1880.36  1900.20  1924.18  1936.06
                             1962.60  1984.65  1987.86  1993.03  2002.10
                             2007.85  2021.02  2030.72  2041.21  2060.73
                             2067.50  2130.79  2132.39  2142.49  2153.10
                             2159.19  2165.04  2173.63  2187.98  4342.70
                             4400.59  4405.33  4413.24  4414.59  4416.70
                             4419.36  4423.68  4432.73  4437.94  4482.05
                             4483.45  4493.62  4499.02  4507.00  4511.73
                             4512.11  4542.59

 Zero-point correction=                           0.281281 (Hartree/Particle)
 Thermal correction to Energy=                    0.292811
 Thermal correction to Enthalpy=                  0.293755
 Thermal correction to Gibbs Free Energy=         0.244070
 Sum of electronic and zero-point Energies=           -617.210505
 Sum of electronic and thermal Energies=              -617.198976
 Sum of electronic and thermal Enthalpies=            -617.198032
 Sum of electronic and thermal Free Energies=         -617.247716

                     E (Thermal)             CV                S
                      KCal/Mol        Cal/Mol-Kelvin    Cal/Mol-Kelvin
 Total                  183.741             46.709            104.570
 Electronic               0.000              0.000              0.000
 Translational            0.889              2.981             41.570
 Rotational               0.889              2.981             31.199
 Vibrational            181.964             40.747             31.801
 Vibration     1          0.598              1.970              4.246
 Vibration     2          0.603              1.952              3.529
 Vibration     3          0.608              1.937              3.186
 Vibration     4          0.624              1.882              2.462
 Vibration     5          0.628              1.872              2.374
 Vibration     6          0.659              1.775              1.782
 Vibration     7          0.669              1.743              1.649
 Vibration     8          0.698              1.658              1.372
 Vibration     9          0.709              1.627              1.289
 Vibration    10          0.737              1.547              1.107
 Vibration    11          0.752              1.507              1.029
 Vibration    12          0.782              1.428              0.893
 Vibration    13          0.800              1.382              0.826
 Vibration    14          0.820              1.334              0.760
 Vibration    15          0.837              1.293              0.708
 Vibration    16          0.894              1.163              0.567
 Vibration    17          0.908              1.134              0.539

 Optimization completed.
    -- Stationary point found.
 Normal termination of Gaussian 16 at Sun Nov  4 23:11:44 2018.
