 Gaussian 16, Revision A.03,
 Gaussian 16:  ES64L-G16RevA.03 25-Dec-2016

 ----------------------------------------------------------------------
 #M062X/6-311++G(2d,2p) opt=ModRedundant freq=noraman SCRF=(Solvent=Wat
 er)
 ----------------------------------------------------------------------

 ----------------------------
 D_1a_4e_D_PHI.inp_extract_20
 ----------------------------
 Symbolic Z-matrix:
 Charge =  0 Multiplicity = 1

 SCF Done:  E(RM062X) =  -617.485869292     A.U. after   12 cycles
 SCF Done:  E(RM062X) =  -617.484990380     A.U. after   11 cycles
 SCF Done:  E(RM062X) =  -617.487077723     A.U. after   11 cycles
 SCF Done:  E(RM062X) =  -617.487971683     A.U. after   10 cycles
 SCF Done:  E(RM062X) =  -617.488069051     A.U. after   10 cycles
 SCF Done:  E(RM062X) =  -617.488094194     A.U. after    9 cycles
 SCF Done:  E(RM062X) =  -617.488108149     A.U. after    9 cycles
 SCF Done:  E(RM062X) =  -617.488109275     A.U. after    8 cycles
 Optimization completed.
    -- Stationary point found.
 Normal termination of Gaussian 16 at Sun Nov  4 22:07:35 2018.

 ----------------------------------------------------------------------
 #N Geom=AllCheck Guess=TCheck SCRF=Check GenChk RM062X/6-311++G(2d,2p)
  Freq
 ----------------------------------------------------------------------

 Structure from the checkpoint file:  "D_1a_4e_D_PHI.inp_extract_20.chk"
 ----------------------------
 D_1a_4e_D_PHI.inp_extract_20
 ----------------------------
 Charge =  0 Multiplicity = 1

                         Standard orientation:
 ---------------------------------------------------------------------
 Center     Atomic      Atomic             Coordinates (Angstroms)
 Number     Number       Type             X           Y           Z
 ---------------------------------------------------------------------
      1          6           0        2.772749    0.646594    1.285156
      2          6           0        1.433910   -0.076769   -1.160819
      3          6           0       -0.994566   -0.616960   -0.648651
      4          6           0        2.860614   -0.791827    0.782982
      5          8           0       -2.830573    0.908702   -0.663261
      6          6           0       -3.284220    0.489621    0.617872
      7          6           0        1.458308    1.253950    0.832241
      8          6           0       -1.422770   -1.183104    0.699264
      9          6           0       -1.413834    0.854278   -0.752494
     10          6           0       -2.926601   -0.964889    0.880916
     11          8           0        1.286270    1.191414   -0.587290
     12          8           0        0.356606   -0.972777   -0.930651
     13          6           0        2.707547   -0.789016   -0.733836
     14          1           0        3.602904    1.232662    0.884189
     15          1           0        2.826275    0.694301    2.372996
     16          1           0       -1.588450   -1.124011   -1.417082
     17          1           0        3.807666   -1.249120    1.066273
     18          1           0        2.061577   -1.385857    1.233624
     19          1           0       -4.361533    0.641327    0.626958
     20          1           0       -2.836876    1.133435    1.385196
     21          1           0        0.630989    0.736547    1.324044
     22          1           0        1.391763    2.310615    1.082206
     23          1           0       -0.874014   -0.684718    1.501500
     24          1           0       -1.174749   -2.243702    0.741402
     25          1           0       -3.475934   -1.594710    0.178069
     26          1           0       -3.240039   -1.243342    1.887228
     27          1           0        3.547375   -0.257263   -1.185647
     28          1           0        2.691087   -1.797089   -1.144918
     29          1           0        1.465960    0.135231   -2.232803
     30          1           0       -0.985957    1.464942    0.043435
     31          1           0       -1.133280    1.280788   -1.712855
 ---------------------------------------------------------------------

 SCF Done:  E(RM062X) =  -617.488109275     A.U. after    1 cycles

 The electronic state is 1-A.
 Alpha  occ. eigenvalues --  -19.63625 -19.62970 -19.62569 -10.63864 -10.59006
 Alpha  occ. eigenvalues --  -10.58230 -10.58049 -10.58003 -10.53220 -10.53132
 Alpha  occ. eigenvalues --  -10.53098 -10.53096 -10.53070  -1.19642  -1.16467
 Alpha  occ. eigenvalues --   -1.13259  -0.91163  -0.90092  -0.87353  -0.84510
 Alpha  occ. eigenvalues --   -0.75164  -0.74120  -0.73311  -0.70453  -0.66875
 Alpha  occ. eigenvalues --   -0.62936  -0.59557  -0.59405  -0.56673  -0.56332
 Alpha  occ. eigenvalues --   -0.53444  -0.53249  -0.51657  -0.50915  -0.50122
 Alpha  occ. eigenvalues --   -0.49188  -0.46673  -0.46026  -0.45572  -0.45154
 Alpha  occ. eigenvalues --   -0.44445  -0.42034  -0.41289  -0.39935  -0.39757
 Alpha  occ. eigenvalues --   -0.38603  -0.37775  -0.36611  -0.34496  -0.32848
 Alpha  occ. eigenvalues --   -0.31738
 Alpha virt. eigenvalues --   -0.00139   0.00762   0.00811   0.01044   0.02262
 Alpha virt. eigenvalues --    0.02595   0.02704   0.03248   0.03343   0.04709
 Alpha virt. eigenvalues --    0.04985   0.05063   0.05786   0.05928   0.07255

 Mulliken charges:
               1
     1  C   -0.367947
     2  C   -0.113401
     3  C   -0.351767
     4  C   -0.316806
     5  O   -0.353922
     6  C   -0.198913
     7  C   -0.178226
     8  C   -0.087279
     9  C   -0.297732
    10  C   -0.326359
    11  O   -0.241810
    12  O   -0.302090
    13  C   -0.337625
    14  H    0.172548
    15  H    0.176522
    16  H    0.248859
    17  H    0.197844
    18  H    0.156712
    19  H    0.217894
    20  H    0.127893
    21  H    0.157790
    22  H    0.218448
    23  H    0.188945
    24  H    0.179772
    25  H    0.174422
    26  H    0.168377
    27  H    0.195300
    28  H    0.186377
    29  H    0.235631
    30  H    0.238973
    31  H    0.231570
 Sum of Mulliken charges =  -0.00000

 Dipole moment (field-independent basis, Debye):
    X=              1.5019    Y=             -0.6363    Z=              3.0298  Tot=              3.4409
 Quadrupole moment (field-independent basis, Debye-Ang):
   XX=            -77.4624   YY=            -83.7281   ZZ=            -78.2709
   XY=              3.2790   XZ=             -4.2542   YZ=              2.3599

  Exact polarizability: 174.049   0.630 155.267  -3.140   1.377 157.114
 Approx polarizability: 147.849   1.806 141.955  -1.599   0.918 144.404

 ******    1 imaginary frequencies (negative Signs) ******

                      1                      2                      3
                      A                      A                      A
 Frequencies --    -66.7873                76.5909               125.5393
 Red. masses --      4.6153                 3.4604                 2.8665
 Frc consts  --      0.0121                 0.0120                 0.0266
 IR Inten    --      6.7421                 0.3042                 0.9485

                      4                      5                      6
                      A                      A                      A
 Frequencies --    134.1232               171.6678               217.9216
 Red. masses --      3.5749                 2.9682                 3.7810
 Frc consts  --      0.0379                 0.0515                 0.1058
 IR Inten    --      6.0593                 1.3431                 3.1592

                      7                      8                      9
                      A                      A                      A
 Frequencies --    259.8048               291.0763               316.0885
 Red. masses --      1.8648                 3.0447                 3.0589
 Frc consts  --      0.0742                 0.1520                 0.1801
 IR Inten    --      1.8141                 4.9305                 9.9308

                     10                     11                     12
                      A                      A                      A
 Frequencies --    352.1844               379.8846               429.7676
 Red. masses --      2.0168                 2.7590                 2.9118
 Frc consts  --      0.1474                 0.2346                 0.3169
 IR Inten    --      0.8932                21.5294                 6.6307

                     13                     14                     15
                      A                      A                      A
 Frequencies --    438.3458               457.0236               477.4569
 Red. masses --      3.1912                 3.2330                 2.4873
 Frc consts  --      0.3613                 0.3979                 0.3341
 IR Inten    --      3.5465                 0.9639                 0.9880

                     16                     17                     18
                      A                      A                      A
 Frequencies --    538.7770               563.6470               656.9806
 Red. masses --      2.2087                 1.9724                 4.9261
 Frc consts  --      0.3778                 0.3692                 1.2527
 IR Inten    --      1.9369                10.3537                 4.9897

                     19                     20                     21
                      A                      A                      A
 Frequencies --    700.4911               808.2390               829.0947
 Red. masses --      2.8747                 2.1731                 2.1037
 Frc consts  --      0.8311                 0.8364                 0.8520
 IR Inten    --      1.2419                 1.7016                 0.0331

                     22                     23                     24
                      A                      A                      A
 Frequencies --    842.5045               871.6972               883.0832
 Red. masses --      2.2535                 1.4194                 2.5039
 Frc consts  --      0.9424                 0.6355                 1.1505
 IR Inten    --      6.5565                11.1639                10.2397

                     25                     26                     27
                      A                      A                      A
 Frequencies --    897.0829               906.0489               923.2975
 Red. masses --      2.2881                 2.5516                 1.9563
 Frc consts  --      1.0849                 1.2342                 0.9826
 IR Inten    --     16.2234                27.5326                31.6249

                     28                     29                     30
                      A                      A                      A
 Frequencies --    941.4319               963.5147               993.7532
 Red. masses --      2.1144                 1.7460                 1.7580
 Frc consts  --      1.1041                 0.9550                 1.0229
 IR Inten    --     38.0411                33.5425                21.5902

                     31                     32                     33
                      A                      A                      A
 Frequencies --   1014.2794              1039.7457              1049.3995
 Red. masses --      2.1981                 2.2753                 1.7270
 Frc consts  --      1.3323                 1.4493                 1.1206
 IR Inten    --     31.6161                46.1899                63.6820

                     34                     35                     36
                      A                      A                      A
 Frequencies --   1065.2465              1075.3328              1114.2862
 Red. masses --      1.5192                 2.1535                 2.8649
 Frc consts  --      1.0157                 1.4672                 2.0958
 IR Inten    --     62.6868                10.5093               183.5579

                     37                     38                     39
                      A                      A                      A
 Frequencies --   1138.7726              1152.9683              1165.0012
 Red. masses --      3.5366                 2.5710                 2.9695
 Frc consts  --      2.7022                 2.0137                 2.3746
 IR Inten    --    159.6056               106.5434                12.9782

                     40                     41                     42
                      A                      A                      A
 Frequencies --   1180.9040              1197.3494              1209.5065
 Red. masses --      2.4776                 2.8215                 1.4016
 Frc consts  --      2.0357                 2.3832                 1.2081
 IR Inten    --     44.4097               263.9951                 3.0970

                     43                     44                     45
                      A                      A                      A
 Frequencies --   1211.3137              1238.5457              1252.3303
 Red. masses --      1.4382                 1.7456                 1.6341
 Frc consts  --      1.2433                 1.5777                 1.5099
 IR Inten    --     24.1229                94.9157                 6.2744

                     46                     47                     48
                      A                      A                      A
 Frequencies --   1290.5002              1303.4494              1325.4645
 Red. masses --      1.2173                 1.1504                 1.1633
 Frc consts  --      1.1944                 1.1516                 1.2042
 IR Inten    --     23.1266                 8.6039                12.6777

                     49                     50                     51
                      A                      A                      A
 Frequencies --   1340.8398              1344.3655              1359.3718
 Red. masses --      1.2936                 1.3181                 1.3615
 Frc consts  --      1.3703                 1.4035                 1.4824
 IR Inten    --     17.4482                 4.8169                 5.4813

                     52                     53                     54
                      A                      A                      A
 Frequencies --   1375.5008              1384.0614              1389.7105
 Red. masses --      1.2944                 1.4217                 1.4504
 Frc consts  --      1.4429                 1.6047                 1.6504
 IR Inten    --     30.3481                 1.0722                 6.8534

                     55                     56                     57
                      A                      A                      A
 Frequencies --   1394.4193              1406.4663              1409.0665
 Red. masses --      1.7157                 1.2830                 1.3308
 Frc consts  --      1.9655                 1.4954                 1.5568
 IR Inten    --     10.9417                16.0104                11.6410

                     58                     59                     60
                      A                      A                      A
 Frequencies --   1414.8101              1417.6295              1431.4150
 Red. masses --      1.3037                 1.3428                 1.3157
 Frc consts  --      1.5375                 1.5900                 1.5883
 IR Inten    --      3.6868                 3.3069                 4.8333

                     61                     62                     63
                      A                      A                      A
 Frequencies --   1451.9874              1475.9577              1480.5492
 Red. masses --      1.3065                 1.1017                 1.0924
 Frc consts  --      1.6228                 1.4141                 1.4108
 IR Inten    --     16.3995                 5.8339                 5.5003

                     64                     65                     66
                      A                      A                      A
 Frequencies --   1484.4449              1492.6989              1495.1087
 Red. masses --      1.0875                 1.1079                 1.1110
 Frc consts  --      1.4120                 1.4544                 1.4632
 IR Inten    --      9.9939                13.9717                12.4333

                     67                     68                     69
                      A                      A                      A
 Frequencies --   1498.4098              1512.1484              1513.3390
 Red. masses --      1.0957                 1.1005                 1.0965
 Frc consts  --      1.4494                 1.4826                 1.4796
 IR Inten    --      0.2054                 4.4328                 7.2948

                     70                     71                     72
                      A                      A                      A
 Frequencies --   3018.4161              3027.9923              3051.5363
 Red. masses --      1.0706                 1.0828                 1.0835
 Frc consts  --      5.7470                 5.8496                 5.9444
 IR Inten    --     76.6774                40.3160                90.1086

                     73                     74                     75
                      A                      A                      A
 Frequencies --   3061.6377              3064.7621              3068.0814
 Red. masses --      1.0684                 1.0649                 1.0620
 Frc consts  --      5.9006                 5.8935                 5.8898
 IR Inten    --      5.6817                40.2665                33.4668

                     76                     77                     78
                      A                      A                      A
 Frequencies --   3070.3724              3079.3355              3081.4859
 Red. masses --      1.0618                 1.0648                 1.0610
 Frc consts  --      5.8976                 5.9490                 5.9360
 IR Inten    --     64.7248                77.2156                14.7669

                     79                     80                     81
                      A                      A                      A
 Frequencies --   3087.0409              3116.4066              3117.0971
 Red. masses --      1.0600                 1.0996                 1.0971
 Frc consts  --      5.9518                 6.2922                 6.2807
 IR Inten    --     49.0864                45.0152                24.8484

                     82                     83                     84
                      A                      A                      A
 Frequencies --   3120.4529              3122.9748              3131.7714
 Red. masses --      1.1010                 1.1029                 1.0949
 Frc consts  --      6.3162                 6.3374                 6.3271
 IR Inten    --     59.6138                83.4419                50.7346

                     85                     86                     87
                      A                      A                      A
 Frequencies --   3133.6915              3137.8233              3150.0747
 Red. masses --      1.1007                 1.1022                 1.1058
 Frc consts  --      6.3687                 6.3941                 6.4650
 IR Inten    --     31.5587                25.4218                41.2089

 - Thermochemistry -
 -------------------
 Temperature   298.150 Kelvin.  Pressure   1.00000 Atm.
 Atom     1 has atomic number  6 and mass  12.00000

 Molecular mass:   186.12559 amu.
 Principal axes and moments of inertia in atomic units:
                           1         2         3
     Eigenvalues --  1124.522193744.506683801.98791
           X            0.99999   0.00379  -0.00378
           Y           -0.00348   0.99694   0.07815
           Z            0.00407  -0.07813   0.99693
 This molecule is an asymmetric top.
 Rotational symmetry number  1.
 Warning -- assumption of classical behavior for rotation
           may cause significant error
 Rotational temperatures (Kelvin)      0.07702     0.02313     0.02278
 Rotational constants (GHZ):           1.60490     0.48197     0.47468
    1 imaginary frequencies ignored.
 Zero-point vibrational energy     736808.5 (Joules/Mol)
                                  176.10147 (Kcal/Mol)
 Warning -- explicit consideration of  16 degrees of freedom as
           vibrations may cause significant error
 Vibrational temperatures:    110.20   180.62   192.97   246.99   313.54
          (Kelvin)            373.80   418.79   454.78   506.71   546.57
                              618.34   630.68   657.56   686.95   775.18
                              810.96   945.25  1007.85  1162.88  1192.88
                             1212.18  1254.18  1270.56  1290.70  1303.60
                             1328.42  1354.51  1386.28  1429.79  1459.32
                             1495.96  1509.85  1532.65  1547.16  1603.21
                             1638.44  1658.86  1676.18  1699.06  1722.72
                             1740.21  1742.81  1781.99  1801.82  1856.74
                             1875.37  1907.05  1929.17  1934.24  1955.83
                             1979.04  1991.36  1999.48  2006.26  2023.59
                             2027.33  2035.60  2039.65  2059.49  2089.09
                             2123.57  2130.18  2135.79  2147.66  2151.13
                             2155.88  2175.64  2177.36  4342.83  4356.61
                             4390.48  4405.01  4409.51  4414.28  4417.58
                             4430.48  4433.57  4441.56  4483.81  4484.81
                             4489.64  4493.26  4505.92  4508.68  4514.63
                             4532.25

 Zero-point correction=                           0.280636 (Hartree/Particle)
 Thermal correction to Energy=                    0.291536
 Thermal correction to Enthalpy=                  0.292480
 Thermal correction to Gibbs Free Energy=         0.244291
 Sum of electronic and zero-point Energies=           -617.207474
 Sum of electronic and thermal Energies=              -617.196574
 Sum of electronic and thermal Enthalpies=            -617.195630
 Sum of electronic and thermal Free Energies=         -617.243818

                     E (Thermal)             CV                S
                      KCal/Mol        Cal/Mol-Kelvin    Cal/Mol-Kelvin
 Total                  182.941             44.940            101.422
 Electronic               0.000              0.000              0.000
 Translational            0.889              2.981             41.570
 Rotational               0.889              2.981             31.149
 Vibrational            181.164             38.978             28.703
 Vibration     1          0.599              1.965              3.976
 Vibration     2          0.610              1.928              3.013
 Vibration     3          0.613              1.919              2.886
 Vibration     4          0.626              1.877              2.417
 Vibration     5          0.646              1.814              1.976
 Vibration     6          0.668              1.746              1.663
 Vibration     7          0.687              1.690              1.468
 Vibration     8          0.703              1.643              1.330
 Vibration     9          0.729              1.571              1.156
 Vibration    10          0.750              1.513              1.040
 Vibration    11          0.791              1.405              0.859
 Vibration    12          0.799              1.387              0.832
 Vibration    13          0.815              1.345              0.775
 Vibration    14          0.834              1.300              0.717
 Vibration    15          0.894              1.164              0.568
 Vibration    16          0.919              1.110              0.517

                           ! Non-Optimized Parameters !
 Normal termination of Gaussian 16 at Sun Nov  4 23:03:35 2018.
