 Gaussian 16, Revision A.03,
 Gaussian 16:  ES64L-G16RevA.03 25-Dec-2016

 ----------------------------------------------------------------------
 #M062X/6-311++G(2d,2p) opt=ModRedundant freq=noraman SCRF=(Solvent=Wat
 er)
 ----------------------------------------------------------------------

 ----------------------------
 L_a1-e4_D_PHI.inp_extract_12
 ----------------------------
 Symbolic Z-matrix:
 Charge =  0 Multiplicity = 1

 SCF Done:  E(RM062X) =  -617.490821776     A.U. after   12 cycles
 SCF Done:  E(RM062X) =  -617.491200362     A.U. after   11 cycles
 SCF Done:  E(RM062X) =  -617.492282217     A.U. after   10 cycles
 SCF Done:  E(RM062X) =  -617.492528987     A.U. after    9 cycles
 SCF Done:  E(RM062X) =  -617.492589462     A.U. after    9 cycles
 SCF Done:  E(RM062X) =  -617.492617949     A.U. after    9 cycles
 SCF Done:  E(RM062X) =  -617.492624823     A.U. after    9 cycles
 SCF Done:  E(RM062X) =  -617.492628191     A.U. after    8 cycles
 SCF Done:  E(RM062X) =  -617.492627314     A.U. after    7 cycles
 Optimization completed.
    -- Stationary point found.
 Normal termination of Gaussian 16 at Sun Nov  4 22:09:06 2018.

 ----------------------------------------------------------------------
 #N Geom=AllCheck Guess=TCheck SCRF=Check GenChk RM062X/6-311++G(2d,2p)
  Freq
 ----------------------------------------------------------------------

 Structure from the checkpoint file:  "L_a1-e4_D_PHI.inp_extract_12.chk"
 ----------------------------
 L_a1-e4_D_PHI.inp_extract_12
 ----------------------------
 Charge =  0 Multiplicity = 1

                         Standard orientation:
 ---------------------------------------------------------------------
 Center     Atomic      Atomic             Coordinates (Angstroms)
 Number     Number       Type             X           Y           Z
 ---------------------------------------------------------------------
      1          6           0        2.455908   -1.294682    0.093435
      2          8           0        2.396017   -0.558433   -1.124598
      3          6           0        2.060506    0.756830    1.425040
      4          8           0       -2.565629   -1.333172    0.631112
      5          6           0        1.496759    0.524290   -1.105163
      6          6           0        1.743877    1.450286    0.093001
      7          6           0       -2.962754    1.058998    0.501584
      8          8           0        0.176214    0.054484   -1.296841
      9          6           0       -1.801322    1.201826   -0.482565
     10          6           0       -3.555821   -0.337233    0.405913
     11          6           0       -0.802265    0.072447   -0.268174
     12          6           0       -1.527763   -1.267634   -0.327657
     13          6           0        3.002014   -0.424734    1.209040
     14          1           0        1.458722   -1.670537    0.348898
     15          1           0        3.096992   -2.149963   -0.106765
     16          1           0        1.154228    0.396960    1.912353
     17          1           0        2.504686    1.485436    2.102687
     18          1           0        1.725906    1.070352   -2.018566
     19          1           0        2.613861    2.045880   -0.188431
     20          1           0        0.910960    2.145150    0.194620
     21          1           0       -3.735687    1.799651    0.296113
     22          1           0       -2.610222    1.224353    1.522056
     23          1           0       -2.172193    1.129643   -1.508912
     24          1           0       -1.312332    2.170447   -0.378001
     25          1           0       -4.324727   -0.496496    1.158711
     26          1           0       -4.001183   -0.490418   -0.584685
     27          1           0       -0.346198    0.167234    0.715431
     28          1           0       -0.839652   -2.084031   -0.115185
     29          1           0       -1.932924   -1.406055   -1.337947
     30          1           0        3.106897   -1.009383    2.122930
     31          1           0        3.995205   -0.073622    0.920570
 ---------------------------------------------------------------------

 SCF Done:  E(RM062X) =  -617.492627314     A.U. after    1 cycles

 The electronic state is 1-A.
 Alpha  occ. eigenvalues --  -19.63200 -19.63152 -19.63030 -10.64024 -10.58921
 Alpha  occ. eigenvalues --  -10.58135 -10.58101 -10.58054 -10.53833 -10.53513
 Alpha  occ. eigenvalues --  -10.53318 -10.53201 -10.53045  -1.19734  -1.16727
 Alpha  occ. eigenvalues --   -1.13604  -0.90642  -0.90384  -0.87634  -0.84770
 Alpha  occ. eigenvalues --   -0.75187  -0.74307  -0.73638  -0.70447  -0.65899
 Alpha  occ. eigenvalues --   -0.64801  -0.59698  -0.58429  -0.57808  -0.55642
 Alpha  occ. eigenvalues --   -0.54777  -0.53764  -0.51813  -0.51010  -0.50209
 Alpha  occ. eigenvalues --   -0.49062  -0.47727  -0.46116  -0.45395  -0.45318
 Alpha  occ. eigenvalues --   -0.43804  -0.41649  -0.41328  -0.40763  -0.39215
 Alpha  occ. eigenvalues --   -0.38371  -0.38113  -0.37151  -0.35232  -0.33285
 Alpha  occ. eigenvalues --   -0.31866
 Alpha virt. eigenvalues --   -0.00179   0.00714   0.00904   0.01046   0.02276
 Alpha virt. eigenvalues --    0.02614   0.02656   0.03336   0.03578   0.04791
 Alpha virt. eigenvalues --    0.04872   0.04973   0.05596   0.05759   0.07140

 Mulliken charges:
               1
     1  C   -0.239135
     2  O   -0.275713
     3  C   -0.320853
     4  O   -0.285159
     5  C   -0.119857
     6  C   -0.326666
     7  C   -0.403923
     8  O   -0.298175
     9  C   -0.113314
    10  C   -0.208992
    11  C   -0.374440
    12  C   -0.248725
    13  C   -0.301357
    14  H    0.110837
    15  H    0.227817
    16  H    0.166522
    17  H    0.187203
    18  H    0.251336
    19  H    0.233811
    20  H    0.177910
    21  H    0.182818
    22  H    0.163072
    23  H    0.212523
    24  H    0.150109
    25  H    0.203032
    26  H    0.150554
    27  H    0.381529
    28  H    0.191655
    29  H    0.189692
    30  H    0.160576
    31  H    0.175314
 Sum of Mulliken charges =  -0.00000

 Dipole moment (field-independent basis, Debye):
    X=             -0.3681    Y=              2.8224    Z=              2.3364  Tot=              3.6825
 Quadrupole moment (field-independent basis, Debye-Ang):
   XX=            -76.1963   YY=            -79.2495   ZZ=            -84.9687
   XY=             -3.4802   XZ=              7.4295   YZ=             -0.3737

  Exact polarizability: 173.550  -3.006 157.567  -0.726  -0.537 154.227
 Approx polarizability: 148.244  -1.662 141.413  -1.400  -1.407 143.462

 ******    1 imaginary frequencies (negative Signs) ******

                      1                      2                      3
                      A                      A                      A
 Frequencies --    -44.9400                54.8003                85.3886
 Red. masses --      4.2133                 3.9345                 3.6368
 Frc consts  --      0.0050                 0.0070                 0.0156
 IR Inten    --      0.6862                 1.2733                 1.9780

                      4                      5                      6
                      A                      A                      A
 Frequencies --    138.4503               206.6768               229.6779
 Red. masses --      3.0482                 2.5953                 2.6298
 Frc consts  --      0.0344                 0.0653                 0.0817
 IR Inten    --      2.3875                 2.6064                 0.7358

                      7                      8                      9
                      A                      A                      A
 Frequencies --    250.4686               310.7583               324.2624
 Red. masses --      2.0181                 4.0189                 2.2137
 Frc consts  --      0.0746                 0.2287                 0.1371
 IR Inten    --      6.2866                13.4727                 1.9174

                     10                     11                     12
                      A                      A                      A
 Frequencies --    362.5899               384.5819               420.8606
 Red. masses --      2.3750                 2.8443                 2.5247
 Frc consts  --      0.1840                 0.2479                 0.2635
 IR Inten    --      8.4278                 2.7043                 7.7498

                     13                     14                     15
                      A                      A                      A
 Frequencies --    445.2967               460.0903               494.1685
 Red. masses --      3.9066                 3.5149                 2.4469
 Frc consts  --      0.4564                 0.4384                 0.3521
 IR Inten    --      8.6703                 1.4661                 0.0946

                     16                     17                     18
                      A                      A                      A
 Frequencies --    518.2124               553.5456               601.1296
 Red. masses --      3.3201                 2.0290                 2.2881
 Frc consts  --      0.5253                 0.3663                 0.4872
 IR Inten    --      1.0036                 2.4996                25.9809

                     19                     20                     21
                      A                      A                      A
 Frequencies --    739.7086               798.0669               828.9815
 Red. masses --      3.0967                 2.1263                 2.0683
 Frc consts  --      0.9983                 0.7979                 0.8374
 IR Inten    --      9.0040                 2.3489                 6.1290

                     22                     23                     24
                      A                      A                      A
 Frequencies --    837.7959               874.4085               891.9911
 Red. masses --      2.3840                 1.3965                 2.4128
 Frc consts  --      0.9859                 0.6291                 1.1311
 IR Inten    --      5.3573                11.6263                13.1120

                     25                     26                     27
                      A                      A                      A
 Frequencies --    899.8800               904.3322               931.6797
 Red. masses --      2.3837                 2.2681                 1.8001
 Frc consts  --      1.1373                 1.0929                 0.9206
 IR Inten    --     46.7743                17.1238                31.7809

                     28                     29                     30
                      A                      A                      A
 Frequencies --    943.6936               965.2414               994.1669
 Red. masses --      2.1329                 2.4102                 1.4724
 Frc consts  --      1.1191                 1.3230                 0.8574
 IR Inten    --     36.2031                67.3988                 9.7830

                     31                     32                     33
                      A                      A                      A
 Frequencies --   1015.8756              1047.8346              1056.5831
 Red. masses --      2.3280                 2.4491                 1.7848
 Frc consts  --      1.4155                 1.5843                 1.1739
 IR Inten    --     13.9942                71.6241                36.4371

                     34                     35                     36
                      A                      A                      A
 Frequencies --   1070.4774              1071.5605              1110.1874
 Red. masses --      1.9938                 1.8372                 2.3148
 Frc consts  --      1.3461                 1.2429                 1.6809
 IR Inten    --     17.0290               147.1647               141.7677

                     37                     38                     39
                      A                      A                      A
 Frequencies --   1146.6579              1149.8707              1158.1024
 Red. masses --      2.5177                 2.9293                 2.6285
 Frc consts  --      1.9504                 2.2820                 2.0771
 IR Inten    --     12.5296               233.9639                11.1809

                     40                     41                     42
                      A                      A                      A
 Frequencies --   1182.4519              1196.2761              1211.3423
 Red. masses --      2.9487                 2.4168                 1.4795
 Frc consts  --      2.4291                 2.0378                 1.2791
 IR Inten    --     74.1794               123.0515                30.7623

                     43                     44                     45
                      A                      A                      A
 Frequencies --   1220.8683              1241.7120              1248.6038
 Red. masses --      1.6275                 1.6661                 1.5341
 Frc consts  --      1.4292                 1.5135                 1.4091
 IR Inten    --     70.5354                40.1586                44.0815

                     46                     47                     48
                      A                      A                      A
 Frequencies --   1300.0924              1304.1515              1318.8639
 Red. masses --      1.2366                 1.2092                 1.1942
 Frc consts  --      1.2315                 1.2118                 1.2239
 IR Inten    --     28.5145                37.2126                12.2731

                     49                     50                     51
                      A                      A                      A
 Frequencies --   1328.8142              1342.8952              1354.1261
 Red. masses --      1.3070                 1.2529                 1.2167
 Frc consts  --      1.3597                 1.3313                 1.3145
 IR Inten    --      7.1552                 1.6205                 3.8147

                     52                     53                     54
                      A                      A                      A
 Frequencies --   1365.6448              1381.4852              1382.9631
 Red. masses --      1.3087                 1.4741                 1.4444
 Frc consts  --      1.4380                 1.6576                 1.6276
 IR Inten    --      3.3781                22.2594                 1.4789

                     55                     56                     57
                      A                      A                      A
 Frequencies --   1388.5136              1391.7137              1405.3098
 Red. masses --      1.3765                 1.6379                 1.3558
 Frc consts  --      1.5636                 1.8692                 1.5776
 IR Inten    --      1.9434                 9.7972                 2.8728

                     58                     59                     60
                      A                      A                      A
 Frequencies --   1412.2974              1423.7206              1429.2621
 Red. masses --      1.3945                 1.3465                 1.4294
 Frc consts  --      1.6388                 1.6080                 1.7203
 IR Inten    --     11.3849                21.3117                 8.0656

                     61                     62                     63
                      A                      A                      A
 Frequencies --   1441.3314              1477.7255              1480.4289
 Red. masses --      1.2426                 1.0940                 1.0942
 Frc consts  --      1.5210                 1.4075                 1.4129
 IR Inten    --      3.2600                 6.5244                 7.7061

                     64                     65                     66
                      A                      A                      A
 Frequencies --   1483.7919              1496.1223              1502.6193
 Red. masses --      1.0888                 1.1062                 1.0867
 Frc consts  --      1.4124                 1.4589                 1.4457
 IR Inten    --      8.8190                17.2462                 0.4253

                     67                     68                     69
                      A                      A                      A
 Frequencies --   1508.1779              1515.9392              1517.3243
 Red. masses --      1.0968                 1.1013                 1.0950
 Frc consts  --      1.4699                 1.4912                 1.4853
 IR Inten    --     10.3540                15.0730                 3.0586

                     70                     71                     72
                      A                      A                      A
 Frequencies --   3020.2405              3021.8089              3037.2540
 Red. masses --      1.0696                 1.0695                 1.0695
 Frc consts  --      5.7487                 5.7538                 5.8131
 IR Inten    --     33.6573               103.7378                57.6310

                     73                     74                     75
                      A                      A                      A
 Frequencies --   3058.8943              3068.9693              3069.7066
 Red. masses --      1.0653                 1.0631                 1.0621
 Frc consts  --      5.8728                 5.8992                 5.8968
 IR Inten    --     24.1061                35.2780                37.0115

                     76                     77                     78
                      A                      A                      A
 Frequencies --   3079.5099              3081.5438              3108.7274
 Red. masses --      1.0681                 1.0617                 1.0880
 Frc consts  --      5.9678                 5.9400                 6.1948
 IR Inten    --     11.2970                22.7547                75.2376

                     79                     80                     81
                      A                      A                      A
 Frequencies --   3112.1707              3115.7770              3120.0462
 Red. masses --      1.0959                 1.0976                 1.1014
 Frc consts  --      6.2537                 6.2779                 6.3169
 IR Inten    --      2.5299                53.5334                58.9850

                     82                     83                     84
                      A                      A                      A
 Frequencies --   3122.8659              3128.1003              3132.3915
 Red. masses --      1.1022                 1.0936                 1.0986
 Frc consts  --      6.3330                 6.3046                 6.3508
 IR Inten    --     79.3487                21.4456                69.3358

                     85                     86                     87
                      A                      A                      A
 Frequencies --   3133.9196              3134.7857              3148.4153
 Red. masses --      1.0953                 1.0954                 1.0864
 Frc consts  --      6.3379                 6.3423                 6.3449
 IR Inten    --     26.5184                35.8338                44.5820

 - Thermochemistry -
 -------------------
 Temperature   298.150 Kelvin.  Pressure   1.00000 Atm.
 Atom     1 has atomic number  6 and mass  12.00000

 Molecular mass:   186.12559 amu.
 Principal axes and moments of inertia in atomic units:
                           1         2         3
     Eigenvalues --  1170.395193906.903224030.23409
           X            0.99985  -0.00812   0.01532
           Y            0.00767   0.99953   0.02974
           Z           -0.01555  -0.02961   0.99944
 This molecule is an asymmetric top.
 Rotational symmetry number  1.
 Warning -- assumption of classical behavior for rotation
           may cause significant error
 Rotational temperatures (Kelvin)      0.07400     0.02217     0.02149
 Rotational constants (GHZ):           1.54199     0.46194     0.44780
    1 imaginary frequencies ignored.
 Zero-point vibrational energy     737065.6 (Joules/Mol)
                                  176.16291 (Kcal/Mol)
 Warning -- explicit consideration of  17 degrees of freedom as
           vibrations may cause significant error
 Vibrational temperatures:     78.85   122.86   199.20   297.36   330.46
          (Kelvin)            360.37   447.11   466.54   521.69   553.33
                              605.52   640.68   661.97   711.00   745.59
                              796.43   864.89  1064.28  1148.24  1192.72
                             1205.40  1258.08  1283.38  1294.73  1301.13
                             1340.48  1357.76  1388.77  1430.38  1461.62
                             1507.60  1520.19  1540.18  1541.74  1597.31
                             1649.78  1654.41  1666.25  1701.28  1721.17
                             1742.85  1756.56  1786.55  1796.46  1870.54
                             1876.38  1897.55  1911.87  1932.13  1948.29
                             1964.86  1987.65  1989.78  1997.76  2002.37
                             2021.93  2031.98  2048.42  2056.39  2073.75
                             2126.12  2130.01  2134.85  2152.59  2161.93
                             2169.93  2181.10  2183.09  4345.45  4347.71
                             4369.93  4401.07  4415.56  4416.62  4430.73
                             4433.65  4472.77  4477.72  4482.91  4489.05
                             4493.11  4500.64  4506.81  4509.01  4510.26
                             4529.87

 Zero-point correction=                           0.280733 (Hartree/Particle)
 Thermal correction to Energy=                    0.291654
 Thermal correction to Enthalpy=                  0.292598
 Thermal correction to Gibbs Free Energy=         0.243954
 Sum of electronic and zero-point Energies=           -617.211894
 Sum of electronic and thermal Energies=              -617.200974
 Sum of electronic and thermal Enthalpies=            -617.200029
 Sum of electronic and thermal Free Energies=         -617.248673

                     E (Thermal)             CV                S
                      KCal/Mol        Cal/Mol-Kelvin    Cal/Mol-Kelvin
 Total                  183.015             44.901            102.380
 Electronic               0.000              0.000              0.000
 Translational            0.889              2.981             41.570
 Rotational               0.889              2.981             31.289
 Vibrational            181.238             38.940             29.521
 Vibration     1          0.596              1.976              4.636
 Vibration     2          0.601              1.959              3.763
 Vibration     3          0.614              1.915              2.825
 Vibration     4          0.641              1.830              2.073
 Vibration     5          0.652              1.796              1.881
 Vibration     6          0.663              1.762              1.727
 Vibration     7          0.700              1.653              1.358
 Vibration     8          0.709              1.627              1.289
 Vibration     9          0.736              1.549              1.111
 Vibration    10          0.754              1.503              1.021
 Vibration    11          0.783              1.425              0.889
 Vibration    12          0.805              1.371              0.810
 Vibration    13          0.818              1.339              0.766
 Vibration    14          0.850              1.263              0.673
 Vibration    15          0.873              1.210              0.614
 Vibration    16          0.909              1.132              0.537
 Vibration    17          0.959              1.029              0.448

                           ! Non-Optimized Parameters !
 Normal termination of Gaussian 16 at Sun Nov  4 23:05:38 2018.
