 Gaussian 16, Revision A.03,
 Gaussian 16:  ES64L-G16RevA.03 25-Dec-2016

 ----------------------------------------------------------------------
 #M062X/6-311++G(2d,2p) opt=ModRedundant freq=noraman SCRF=(Solvent=Wat
 er)
 ----------------------------------------------------------------------

 ---------------------------
 L_a1-e4_D_PHI.inp_extract_2
 ---------------------------
 Symbolic Z-matrix:
 Charge =  0 Multiplicity = 1

 SCF Done:  E(RM062X) =  -617.500826972     A.U. after   12 cycles
 SCF Done:  E(RM062X) =  -617.502530115     A.U. after   11 cycles
 SCF Done:  E(RM062X) =  -617.502751470     A.U. after   10 cycles
 SCF Done:  E(RM062X) =  -617.502837332     A.U. after    9 cycles
 SCF Done:  E(RM062X) =  -617.502856296     A.U. after   10 cycles
 SCF Done:  E(RM062X) =  -617.502869300     A.U. after   10 cycles
 SCF Done:  E(RM062X) =  -617.502867747     A.U. after   10 cycles
 SCF Done:  E(RM062X) =  -617.502873800     A.U. after    9 cycles
 SCF Done:  E(RM062X) =  -617.502874853     A.U. after    7 cycles
 Optimization completed.
    -- Stationary point found.
 Normal termination of Gaussian 16 at Sun Nov  4 22:09:28 2018.

 ----------------------------------------------------------------------
 #N Geom=AllCheck Guess=TCheck SCRF=Check GenChk RM062X/6-311++G(2d,2p)
  Freq
 ----------------------------------------------------------------------

 Structure from the checkpoint file:  "L_a1-e4_D_PHI.inp_extract_2.chk"
 ---------------------------
 L_a1-e4_D_PHI.inp_extract_2
 ---------------------------
 Charge =  0 Multiplicity = 1

                         Standard orientation:
 ---------------------------------------------------------------------
 Center     Atomic      Atomic             Coordinates (Angstroms)
 Number     Number       Type             X           Y           Z
 ---------------------------------------------------------------------
      1          6           0        1.998506    0.135472    1.486153
      2          8           0        1.428037   -0.995419    0.819423
      3          6           0        3.185842    0.802546   -0.591829
      4          8           0       -2.892480   -1.113252    0.503195
      5          6           0        1.264193   -0.820962   -0.564454
      6          6           0        2.544033   -0.405368   -1.269148
      7          6           0       -3.071526    1.297973    0.274332
      8          8           0        0.272587    0.143376   -0.871050
      9          6           0       -1.737792    1.329898   -0.470633
     10          6           0       -3.740969   -0.053258    0.081272
     11          6           0       -0.892778    0.137558   -0.059037
     12          6           0       -1.688841   -1.152949   -0.241350
     13          6           0        3.345953    0.514866    0.899184
     14          1           0        1.314062    0.986574    1.414319
     15          1           0        2.077358   -0.154500    2.531305
     16          1           0        2.550282    1.680234   -0.725923
     17          1           0        4.147913    1.023180   -1.052580
     18          1           0        0.935206   -1.800600   -0.919246
     19          1           0        3.228090   -1.255230   -1.233016
     20          1           0        2.313922   -0.207750   -2.315436
     21          1           0       -3.731758    2.087802   -0.083956
     22          1           0       -2.908144    1.462274    1.341500
     23          1           0       -1.913247    1.271882   -1.548417
     24          1           0       -1.193366    2.253423   -0.272447
     25          1           0       -4.649646   -0.136429    0.673588
     26          1           0       -3.999373   -0.197843   -0.974953
     27          1           0       -0.625995    0.225828    0.996351
     28          1           0       -1.128690   -2.013674    0.119845
     29          1           0       -1.904682   -1.292290   -1.308796
     30          1           0        3.734901    1.383598    1.430868
     31          1           0        4.048292   -0.308775    1.047517
 ---------------------------------------------------------------------

 SCF Done:  E(RM062X) =  -617.502874853     A.U. after    1 cycles

 The electronic state is 1-A.
 Alpha  occ. eigenvalues --  -19.63507 -19.63284 -19.63170 -10.63664 -10.58553
 Alpha  occ. eigenvalues --  -10.58106 -10.58049 -10.57975 -10.53271 -10.53214
 Alpha  occ. eigenvalues --  -10.53189 -10.53084 -10.53013  -1.20250  -1.16627
 Alpha  occ. eigenvalues --   -1.13524  -0.91224  -0.89974  -0.87227  -0.84618
 Alpha  occ. eigenvalues --   -0.75020  -0.74245  -0.72989  -0.70589  -0.65662
 Alpha  occ. eigenvalues --   -0.64274  -0.59862  -0.59190  -0.57364  -0.55850
 Alpha  occ. eigenvalues --   -0.54182  -0.53172  -0.52484  -0.50774  -0.49992
 Alpha  occ. eigenvalues --   -0.47980  -0.46979  -0.46038  -0.45818  -0.45249
 Alpha  occ. eigenvalues --   -0.44149  -0.43022  -0.40612  -0.40055  -0.39329
 Alpha  occ. eigenvalues --   -0.38593  -0.37960  -0.36373  -0.35635  -0.33848
 Alpha  occ. eigenvalues --   -0.31731
 Alpha virt. eigenvalues --   -0.00101   0.00747   0.00889   0.01058   0.02184
 Alpha virt. eigenvalues --    0.02491   0.02640   0.03432   0.03481   0.04435
 Alpha virt. eigenvalues --    0.04601   0.04839   0.05639   0.05802   0.07097

 Mulliken charges:
               1
     1  C   -0.127759
     2  O   -0.250715
     3  C   -0.278479
     4  O   -0.311617
     5  C   -0.061103
     6  C   -0.430834
     7  C   -0.362329
     8  O   -0.266179
     9  C   -0.253289
    10  C   -0.130738
    11  C   -0.206354
    12  C   -0.316862
    13  C   -0.415361
    14  H    0.135436
    15  H    0.205973
    16  H    0.169850
    17  H    0.183494
    18  H    0.232705
    19  H    0.197614
    20  H    0.182900
    21  H    0.185439
    22  H    0.160343
    23  H    0.209850
    24  H    0.156031
    25  H    0.210016
    26  H    0.133825
    27  H    0.275549
    28  H    0.231784
    29  H    0.197403
    30  H    0.175848
    31  H    0.167560
 Sum of Mulliken charges =  -0.00000

 Dipole moment (field-independent basis, Debye):
    X=              1.0910    Y=              2.2356    Z=             -0.6854  Tot=              2.5804
 Quadrupole moment (field-independent basis, Debye-Ang):
   XX=            -72.5346   YY=            -82.0545   ZZ=            -80.3860
   XY=             -4.6124   XZ=              3.1907   YZ=              5.3846

  Exact polarizability: 174.279  -1.989 154.679  -1.153   2.739 156.116
 Approx polarizability: 145.753  -2.223 142.191  -0.325   0.468 144.368

                      1                      2                      3
                      A                      A                      A
 Frequencies --     28.0661                67.9444               100.9501
 Red. masses --      3.5575                 3.9036                 3.2513
 Frc consts  --      0.0017                 0.0106                 0.0195
 IR Inten    --      0.7040                 0.7488                 0.2599

                      4                      5                      6
                      A                      A                      A
 Frequencies --    150.6600               179.5769               226.2939
 Red. masses --      3.8092                 2.6446                 2.7642
 Frc consts  --      0.0509                 0.0502                 0.0834
 IR Inten    --      2.2635                 1.7707                14.6843

                      7                      8                      9
                      A                      A                      A
 Frequencies --    255.3695               283.2076               350.9233
 Red. masses --      2.2860                 2.5722                 2.7806
 Frc consts  --      0.0878                 0.1216                 0.2017
 IR Inten    --      1.2159                 4.7658                11.2859

                     10                     11                     12
                      A                      A                      A
 Frequencies --    361.4825               375.7608               436.8036
 Red. masses --      2.2140                 2.4052                 3.4463
 Frc consts  --      0.1705                 0.2001                 0.3874
 IR Inten    --      5.0530                24.7241                 7.9727

                     13                     14                     15
                      A                      A                      A
 Frequencies --    450.0816               462.0988               479.4402
 Red. masses --      3.4552                 3.2447                 2.2955
 Frc consts  --      0.4124                 0.4082                 0.3109
 IR Inten    --      3.8593                 0.2385                 1.7000

                     16                     17                     18
                      A                      A                      A
 Frequencies --    532.3155               575.0843               630.0890
 Red. masses --      2.3436                 2.2426                 3.0687
 Frc consts  --      0.3913                 0.4370                 0.7178
 IR Inten    --      1.4785                 7.7247                 2.5585

                     19                     20                     21
                      A                      A                      A
 Frequencies --    722.2392               828.7004               834.4697
 Red. masses --      3.1439                 1.7336                 2.1928
 Frc consts  --      0.9662                 0.7015                 0.8997
 IR Inten    --      2.8222                 0.5617                 0.3175

                     22                     23                     24
                      A                      A                      A
 Frequencies --    839.8106               876.8817               891.0520
 Red. masses --      2.7529                 1.3961                 2.3194
 Frc consts  --      1.1439                 0.6325                 1.0850
 IR Inten    --      7.7354                 8.8495                 7.0277

                     25                     26                     27
                      A                      A                      A
 Frequencies --    900.3615               910.8549               928.6323
 Red. masses --      2.3776                 2.5567                 1.7121
 Frc consts  --      1.1356                 1.2497                 0.8699
 IR Inten    --     28.3940                12.3550                18.9774

                     28                     29                     30
                      A                      A                      A
 Frequencies --    944.6180               987.3417               993.0062
 Red. masses --      2.1436                 1.8335                 1.7543
 Frc consts  --      1.1269                 1.0531                 1.0192
 IR Inten    --     24.2295                72.4978                20.9284

                     31                     32                     33
                      A                      A                      A
 Frequencies --   1018.7154              1042.7310              1055.2801
 Red. masses --      2.2829                 2.3034                 1.7108
 Frc consts  --      1.3959                 1.4756                 1.1225
 IR Inten    --     32.8780                73.7317                28.0101

                     34                     35                     36
                      A                      A                      A
 Frequencies --   1064.5542              1074.9051              1115.3279
 Red. masses --      1.5348                 2.2204                 4.2874
 Frc consts  --      1.0248                 1.5115                 3.1423
 IR Inten    --     69.8577                13.7672               229.2216

                     37                     38                     39
                      A                      A                      A
 Frequencies --   1148.9276              1150.9442              1165.0383
 Red. masses --      2.6491                 2.6120                 2.4896
 Frc consts  --      2.0603                 2.0386                 1.9910
 IR Inten    --     59.6218               127.3354                14.0057

                     40                     41                     42
                      A                      A                      A
 Frequencies --   1184.5720              1189.7707              1210.0859
 Red. masses --      3.5447                 2.1299                 1.4095
 Frc consts  --      2.9306                 1.7764                 1.2160
 IR Inten    --    194.2987                20.3041                 8.8142

                     43                     44                     45
                      A                      A                      A
 Frequencies --   1222.3733              1236.0165              1254.6539
 Red. masses --      1.6524                 1.6918                 1.5031
 Frc consts  --      1.4547                 1.5228                 1.3941
 IR Inten    --     37.3444                70.7229                22.6737

                     46                     47                     48
                      A                      A                      A
 Frequencies --   1291.0030              1302.5884              1324.4910
 Red. masses --      1.2175                 1.1727                 1.1469
 Frc consts  --      1.1955                 1.1723                 1.1854
 IR Inten    --     22.7012                15.2689                 7.6348

                     49                     50                     51
                      A                      A                      A
 Frequencies --   1329.1402              1344.1949              1357.8470
 Red. masses --      1.2798                 1.2630                 1.2748
 Frc consts  --      1.3321                 1.3446                 1.3849
 IR Inten    --      7.2026                 0.5860                14.3103

                     52                     53                     54
                      A                      A                      A
 Frequencies --   1363.5763              1383.7253              1385.6391
 Red. masses --      1.2978                 1.4535                 1.4535
 Frc consts  --      1.4217                 1.6397                 1.6442
 IR Inten    --      1.2515                 3.9338                 3.4109

                     55                     56                     57
                      A                      A                      A
 Frequencies --   1392.2822              1401.5597              1402.5726
 Red. masses --      1.6524                 1.5467                 1.2807
 Frc consts  --      1.8872                 1.7902                 1.4844
 IR Inten    --     13.8518                 8.5263                16.8262

                     58                     59                     60
                      A                      A                      A
 Frequencies --   1415.1872              1420.4890              1436.0190
 Red. masses --      1.3235                 1.4566                 1.3844
 Frc consts  --      1.5617                 1.7316                 1.6820
 IR Inten    --      8.2642                 8.1528                 0.9318

                     61                     62                     63
                      A                      A                      A
 Frequencies --   1444.2585              1475.6314              1482.2339
 Red. masses --      1.3611                 1.1024                 1.0923
 Frc consts  --      1.6727                 1.4143                 1.4139
 IR Inten    --     17.2678                 5.8589                 7.5585

                     64                     65                     66
                      A                      A                      A
 Frequencies --   1483.3025              1494.7738              1495.1825
 Red. masses --      1.0877                 1.1150                 1.1181
 Frc consts  --      1.4100                 1.4679                 1.4727
 IR Inten    --      8.0784                11.6918                14.2914

                     67                     68                     69
                      A                      A                      A
 Frequencies --   1500.3034              1509.4462              1512.6635
 Red. masses --      1.0827                 1.0937                 1.1011
 Frc consts  --      1.4359                 1.4682                 1.4845
 IR Inten    --      1.2582                 2.8244                 7.6912

                     70                     71                     72
                      A                      A                      A
 Frequencies --   3013.8153              3019.9085              3046.9597
 Red. masses --      1.0690                 1.0705                 1.0690
 Frc consts  --      5.7210                 5.7520                 5.8472
 IR Inten    --     49.0155                84.2640                49.6893

                     73                     74                     75
                      A                      A                      A
 Frequencies --   3058.3000              3064.9242              3066.2104
 Red. masses --      1.0649                 1.0661                 1.0780
 Frc consts  --      5.8683                 5.9007                 5.9712
 IR Inten    --     22.4471                40.4635                33.6428

                     76                     77                     78
                      A                      A                      A
 Frequencies --   3069.8309              3072.5292              3081.3603
 Red. masses --      1.0625                 1.0634                 1.0704
 Frc consts  --      5.8993                 5.9148                 5.9879
 IR Inten    --     29.4662                28.3498                94.2186

                     79                     80                     81
                      A                      A                      A
 Frequencies --   3082.5513              3114.0851              3116.1247
 Red. masses --      1.0781                 1.0991                 1.0981
 Frc consts  --      6.0355                 6.2797                 6.2824
 IR Inten    --     32.5549                44.7842                37.4423

                     82                     83                     84
                      A                      A                      A
 Frequencies --   3121.0336              3121.0767              3130.6168
 Red. masses --      1.1024                 1.1022                 1.1011
 Frc consts  --      6.3265                 6.3257                 6.3581
 IR Inten    --     56.0857                59.7427                10.1660

                     85                     86                     87
                      A                      A                      A
 Frequencies --   3131.0802              3134.2233              3136.7351
 Red. masses --      1.0961                 1.0952                 1.0974
 Frc consts  --      6.3311                 6.3387                 6.3617
 IR Inten    --     69.8979                40.9484                40.5317

 - Thermochemistry -
 -------------------
 Temperature   298.150 Kelvin.  Pressure   1.00000 Atm.
 Atom     1 has atomic number  6 and mass  12.00000

 Molecular mass:   186.12559 amu.
 Principal axes and moments of inertia in atomic units:
                           1         2         3
     Eigenvalues --   964.559724289.883344373.73973
           X            0.99999  -0.00460   0.00164
           Y            0.00413   0.97644   0.21574
           Z           -0.00260  -0.21573   0.97645
 This molecule is an asymmetric top.
 Rotational symmetry number  1.
 Warning -- assumption of classical behavior for rotation
           may cause significant error
 Rotational temperatures (Kelvin)      0.08980     0.02019     0.01980
 Rotational constants (GHZ):           1.87105     0.42070     0.41263
 Zero-point vibrational energy     737303.3 (Joules/Mol)
                                  176.21972 (Kcal/Mol)
 Warning -- explicit consideration of  17 degrees of freedom as
           vibrations may cause significant error
 Vibrational temperatures:     40.38    97.76   145.24   216.77   258.37
          (Kelvin)            325.59   367.42   407.47   504.90   520.09
                              540.64   628.46   647.57   664.86   689.81
                              765.88   827.42   906.56  1039.14  1192.31
                             1200.62  1208.30  1261.64  1282.03  1295.42
                             1310.52  1336.09  1359.09  1420.56  1428.71
                             1465.70  1500.26  1518.31  1531.66  1546.55
                             1604.71  1653.05  1655.95  1676.23  1704.33
                             1711.81  1741.04  1758.72  1778.35  1805.17
                             1857.47  1874.13  1905.65  1912.34  1934.00
                             1953.64  1961.88  1990.87  1993.63  2003.18
                             2016.53  2017.99  2036.14  2043.77  2066.11
                             2077.97  2123.10  2132.60  2134.14  2150.65
                             2151.23  2158.60  2171.76  2176.39  4336.21
                             4344.97  4383.90  4400.21  4409.74  4411.59
                             4416.80  4420.68  4433.39  4435.10  4480.47
                             4483.41  4490.47  4490.53  4504.26  4504.93
                             4509.45  4513.06

 Zero-point correction=                           0.280824 (Hartree/Particle)
 Thermal correction to Energy=                    0.292547
 Thermal correction to Enthalpy=                  0.293491
 Thermal correction to Gibbs Free Energy=         0.242389
 Sum of electronic and zero-point Energies=           -617.222051
 Sum of electronic and thermal Energies=              -617.210328
 Sum of electronic and thermal Enthalpies=            -617.209384
 Sum of electronic and thermal Free Energies=         -617.260486

                     E (Thermal)             CV                S
                      KCal/Mol        Cal/Mol-Kelvin    Cal/Mol-Kelvin
 Total                  183.576             46.687            107.553
 Electronic               0.000              0.000              0.000
 Translational            0.889              2.981             41.570
 Rotational               0.889              2.981             31.271
 Vibrational            181.799             40.725             34.713
 Vibration     1          0.593              1.984              5.962
 Vibration     2          0.598              1.969              4.212
 Vibration     3          0.604              1.948              3.436
 Vibration     4          0.618              1.902              2.664
 Vibration     5          0.629              1.867              2.333
 Vibration     6          0.650              1.801              1.908
 Vibration     7          0.666              1.754              1.693
 Vibration     8          0.682              1.705              1.514
 Vibration     9          0.728              1.573              1.162
 Vibration    10          0.736              1.552              1.116
 Vibration    11          0.747              1.522              1.056
 Vibration    12          0.797              1.390              0.837
 Vibration    13          0.809              1.361              0.796
 Vibration    14          0.820              1.334              0.760
 Vibration    15          0.836              1.296              0.712
 Vibration    16          0.887              1.179              0.582
 Vibration    17          0.931              1.085              0.495

                           ! Non-Optimized Parameters !
 Normal termination of Gaussian 16 at Sun Nov  4 23:06:51 2018.
