 Gaussian 16, Revision A.03,
 Gaussian 16:  ES64L-G16RevA.03 25-Dec-2016

 ----------------------------------------------------------------------
 #M062X/6-311++G(2d,2p) opt=ModRedundant freq=noraman SCRF=(Solvent=Wat
 er)
 ----------------------------------------------------------------------

 ----------------------------
 L_a1-e4_D_PHI.inp_extract_11
 ----------------------------
 Symbolic Z-matrix:
 Charge =  0 Multiplicity = 1

 SCF Done:  E(RM062X) =  -617.490848818     A.U. after   12 cycles
 SCF Done:  E(RM062X) =  -617.491173340     A.U. after   11 cycles
 SCF Done:  E(RM062X) =  -617.492291644     A.U. after   11 cycles
 SCF Done:  E(RM062X) =  -617.492623542     A.U. after   10 cycles
 SCF Done:  E(RM062X) =  -617.492695203     A.U. after   10 cycles
 SCF Done:  E(RM062X) =  -617.492700358     A.U. after    8 cycles
 SCF Done:  E(RM062X) =  -617.492701818     A.U. after    8 cycles
 SCF Done:  E(RM062X) =  -617.492703350     A.U. after    8 cycles
 SCF Done:  E(RM062X) =  -617.492704328     A.U. after    7 cycles
 SCF Done:  E(RM062X) =  -617.492704922     A.U. after    7 cycles
 Optimization completed.
    -- Stationary point found.
 Normal termination of Gaussian 16 at Sun Nov  4 22:12:46 2018.

 ----------------------------------------------------------------------
 #N Geom=AllCheck Guess=TCheck SCRF=Check GenChk RM062X/6-311++G(2d,2p)
  Freq
 ----------------------------------------------------------------------

 Structure from the checkpoint file:  "L_a1-e4_D_PHI.inp_extract_11.chk"
 ----------------------------
 L_a1-e4_D_PHI.inp_extract_11
 ----------------------------
 Charge =  0 Multiplicity = 1

                         Standard orientation:
 ---------------------------------------------------------------------
 Center     Atomic      Atomic             Coordinates (Angstroms)
 Number     Number       Type             X           Y           Z
 ---------------------------------------------------------------------
      1          6           0        2.294654   -1.334600    0.313008
      2          8           0        2.281874   -0.797462   -1.007412
      3          6           0        2.087508    0.928502    1.311793
      4          8           0       -2.531731   -1.316935    0.624259
      5          6           0        1.522723    0.377124   -1.175546
      6          6           0        1.841761    1.439618   -0.113766
      7          6           0       -2.887114    1.084778    0.567343
      8          8           0        0.158607    0.078292   -1.380772
      9          6           0       -1.761449    1.232474   -0.457074
     10          6           0       -3.510218   -0.297591    0.461323
     11          6           0       -0.778297    0.079574   -0.311369
     12          6           0       -1.530821   -1.245525   -0.372540
     13          6           0        2.917444   -0.351844    1.285869
     14          1           0        1.277136   -1.594861    0.623479
     15          1           0        2.868748   -2.256119    0.249268
     16          1           0        1.150283    0.735682    1.833903
     17          1           0        2.598669    1.705778    1.879191
     18          1           0        1.841889    0.754965   -2.144820
     19          1           0        2.761064    1.916880   -0.457222
     20          1           0        1.066318    2.204551   -0.134526
     21          1           0       -3.653179    1.844122    0.410090
     22          1           0       -2.492823    1.218418    1.577150
     23          1           0       -2.172596    1.196797   -1.469883
     24          1           0       -1.248535    2.187532   -0.343894
     25          1           0       -4.252817   -0.460832    1.239250
     26          1           0       -3.995984   -0.418145   -0.514689
     27          1           0       -0.279631    0.144183    0.653876
     28          1           0       -0.850299   -2.079707   -0.208983
     29          1           0       -1.977336   -1.350893   -1.369343
     30          1           0        2.975776   -0.798109    2.278538
     31          1           0        3.936175   -0.136477    0.955764
 ---------------------------------------------------------------------

 SCF Done:  E(RM062X) =  -617.492704922     A.U. after    1 cycles

 The electronic state is 1-A.
 Alpha  occ. eigenvalues --  -19.63211 -19.63208 -19.63083 -10.64006 -10.58915
 Alpha  occ. eigenvalues --  -10.58152 -10.58140 -10.58112 -10.53786 -10.53514
 Alpha  occ. eigenvalues --  -10.53337 -10.53244 -10.53097  -1.19703  -1.16735
 Alpha  occ. eigenvalues --   -1.13658  -0.90732  -0.90413  -0.87656  -0.84711
 Alpha  occ. eigenvalues --   -0.75197  -0.74345  -0.73752  -0.70453  -0.66011
 Alpha  occ. eigenvalues --   -0.64818  -0.59773  -0.58324  -0.57685  -0.55441
 Alpha  occ. eigenvalues --   -0.54892  -0.53783  -0.51999  -0.50918  -0.50313
 Alpha  occ. eigenvalues --   -0.49355  -0.47632  -0.46122  -0.45438  -0.45096
 Alpha  occ. eigenvalues --   -0.43844  -0.41729  -0.41371  -0.40738  -0.39387
 Alpha  occ. eigenvalues --   -0.38474  -0.38068  -0.37180  -0.35002  -0.33473
 Alpha  occ. eigenvalues --   -0.31882
 Alpha virt. eigenvalues --   -0.00184   0.00690   0.00900   0.01066   0.02289
 Alpha virt. eigenvalues --    0.02619   0.02657   0.03298   0.03633   0.04798
 Alpha virt. eigenvalues --    0.04913   0.05004   0.05530   0.05786   0.07231

 Mulliken charges:
               1
     1  C   -0.241474
     2  O   -0.294973
     3  C   -0.351528
     4  O   -0.282629
     5  C   -0.162159
     6  C   -0.276818
     7  C   -0.381090
     8  O   -0.263025
     9  C   -0.188996
    10  C   -0.201885
    11  C   -0.319026
    12  C   -0.262866
    13  C   -0.308674
    14  H    0.118554
    15  H    0.228147
    16  H    0.172062
    17  H    0.193180
    18  H    0.252649
    19  H    0.233470
    20  H    0.185143
    21  H    0.183126
    22  H    0.164567
    23  H    0.214163
    24  H    0.142326
    25  H    0.203964
    26  H    0.150267
    27  H    0.375477
    28  H    0.188616
    29  H    0.189991
    30  H    0.164304
    31  H    0.175138
 Sum of Mulliken charges =  -0.00000

 Dipole moment (field-independent basis, Debye):
    X=             -0.1510    Y=              3.0399    Z=              2.3049  Tot=              3.8180
 Quadrupole moment (field-independent basis, Debye-Ang):
   XX=            -75.4329   YY=            -80.2172   ZZ=            -84.2907
   XY=             -2.5680   XZ=              6.3487   YZ=             -0.8026

  Exact polarizability: 172.451  -2.778 157.661  -0.696  -0.732 155.151
 Approx polarizability: 147.756  -1.901 141.148  -1.316  -1.496 144.163

 ******    1 imaginary frequencies (negative Signs) ******

                      1                      2                      3
                      A                      A                      A
 Frequencies --    -13.9858                43.4580                79.4155
 Red. masses --      4.4168                 3.8364                 3.7167
 Frc consts  --      0.0005                 0.0043                 0.0138
 IR Inten    --      0.8756                 1.0615                 2.2393

                      4                      5                      6
                      A                      A                      A
 Frequencies --    128.1889               205.1712               223.8371
 Red. masses --      2.9167                 2.8513                 2.3013
 Frc consts  --      0.0282                 0.0707                 0.0679
 IR Inten    --      1.7345                 2.6460                 0.0849

                      7                      8                      9
                      A                      A                      A
 Frequencies --    255.0379               301.4066               329.4740
 Red. masses --      2.0090                 3.4833                 2.1674
 Frc consts  --      0.0770                 0.1864                 0.1386
 IR Inten    --      6.9093                 9.5003                 4.3022

                     10                     11                     12
                      A                      A                      A
 Frequencies --    358.4495               393.4852               421.3476
 Red. masses --      2.4002                 3.4093                 2.4311
 Frc consts  --      0.1817                 0.3110                 0.2543
 IR Inten    --      8.4439                 4.7861                 7.7139

                     13                     14                     15
                      A                      A                      A
 Frequencies --    448.0788               460.8179               493.8534
 Red. masses --      3.8708                 3.5695                 2.5046
 Frc consts  --      0.4579                 0.4466                 0.3599
 IR Inten    --      9.2681                 1.1635                 0.1061

                     16                     17                     18
                      A                      A                      A
 Frequencies --    508.8580               559.1655               591.1791
 Red. masses --      3.6140                 2.1155                 2.1636
 Frc consts  --      0.5514                 0.3897                 0.4455
 IR Inten    --      1.8662                 3.6632                24.1181

                     19                     20                     21
                      A                      A                      A
 Frequencies --    744.1780               793.5891               828.0656
 Red. masses --      3.2186                 2.0851                 2.0635
 Frc consts  --      1.0502                 0.7737                 0.8336
 IR Inten    --     10.5754                 2.4059                 7.6213

                     22                     23                     24
                      A                      A                      A
 Frequencies --    840.0573               874.8153               891.3662
 Red. masses --      2.3261                 1.4072                 2.3920
 Frc consts  --      0.9672                 0.6345                 1.1198
 IR Inten    --      2.9769                12.2259                10.9284

                     25                     26                     27
                      A                      A                      A
 Frequencies --    898.2093               903.1548               932.4968
 Red. masses --      2.5353                 2.1744                 1.7777
 Frc consts  --      1.2052                 1.0450                 0.9107
 IR Inten    --     55.2226                 9.8088                23.4992

                     28                     29                     30
                      A                      A                      A
 Frequencies --    944.9061               965.4135               993.5965
 Red. masses --      2.0766                 2.4452                 1.4871
 Frc consts  --      1.0924                 1.3427                 0.8650
 IR Inten    --     35.5318                71.5037                10.6209

                     31                     32                     33
                      A                      A                      A
 Frequencies --   1014.6959              1051.7548              1057.2946
 Red. masses --      2.3232                 2.2121                 2.0143
 Frc consts  --      1.4093                 1.4417                 1.3267
 IR Inten    --     10.3637                35.0055                64.5457

                     34                     35                     36
                      A                      A                      A
 Frequencies --   1067.7999              1073.3367              1106.6424
 Red. masses --      1.7656                 2.2547                 2.1516
 Frc consts  --      1.1861                 1.5304                 1.5525
 IR Inten    --     77.5462               130.3473               114.0815

                     37                     38                     39
                      A                      A                      A
 Frequencies --   1147.9684              1149.3842              1155.5200
 Red. masses --      2.7710                 2.6179                 2.6627
 Frc consts  --      2.1516                 2.0377                 2.0947
 IR Inten    --    171.9880                39.2135                37.5381

                     40                     41                     42
                      A                      A                      A
 Frequencies --   1182.9740              1196.1383              1210.0313
 Red. masses --      2.9238                 2.3415                 1.4971
 Frc consts  --      2.4108                 1.9738                 1.2915
 IR Inten    --     72.8628               118.3982                30.5078

                     43                     44                     45
                      A                      A                      A
 Frequencies --   1221.2906              1240.7774              1248.4944
 Red. masses --      1.6279                 1.6552                 1.5198
 Frc consts  --      1.4306                 1.5014                 1.3957
 IR Inten    --     66.1100                46.5561                47.3590

                     46                     47                     48
                      A                      A                      A
 Frequencies --   1299.8382              1303.6993              1318.4322
 Red. masses --      1.2249                 1.2176                 1.2108
 Frc consts  --      1.2194                 1.2193                 1.2401
 IR Inten    --     20.9391                43.5694                16.0973

                     49                     50                     51
                      A                      A                      A
 Frequencies --   1327.9636              1344.4683              1352.3509
 Red. masses --      1.2932                 1.2749                 1.2249
 Frc consts  --      1.3437                 1.3578                 1.3199
 IR Inten    --      7.5826                 1.9614                 4.3160

                     52                     53                     54
                      A                      A                      A
 Frequencies --   1364.4913              1382.4205              1383.5093
 Red. masses --      1.3129                 1.4481                 1.4325
 Frc consts  --      1.4403                 1.6306                 1.6155
 IR Inten    --      3.7970                 1.0863                16.1986

                     55                     56                     57
                      A                      A                      A
 Frequencies --   1389.8339              1391.5345              1404.2498
 Red. masses --      1.4092                 1.6056                 1.3621
 Frc consts  --      1.6038                 1.8317                 1.5825
 IR Inten    --      4.1824                10.6705                 1.8681

                     58                     59                     60
                      A                      A                      A
 Frequencies --   1412.5575              1424.3874              1428.6513
 Red. masses --      1.4119                 1.3655                 1.4337
 Frc consts  --      1.6599                 1.6323                 1.7241
 IR Inten    --     12.3623                25.3111                 5.1543

                     61                     62                     63
                      A                      A                      A
 Frequencies --   1447.9987              1475.7256              1481.3761
 Red. masses --      1.1913                 1.0944                 1.0906
 Frc consts  --      1.4717                 1.4042                 1.4101
 IR Inten    --      1.6828                 5.2053                11.2725

                     64                     65                     66
                      A                      A                      A
 Frequencies --   1483.0820              1495.4714              1501.3172
 Red. masses --      1.0921                 1.1049                 1.0891
 Frc consts  --      1.4152                 1.4559                 1.4464
 IR Inten    --      6.6389                16.7357                 0.7238

                     67                     68                     69
                      A                      A                      A
 Frequencies --   1510.5329              1514.2393              1520.7369
 Red. masses --      1.0945                 1.1021                 1.0929
 Frc consts  --      1.4713                 1.4889                 1.4892
 IR Inten    --     11.4049                13.2400                 5.1561

                     70                     71                     72
                      A                      A                      A
 Frequencies --   3019.2037              3021.5348              3045.4893
 Red. masses --      1.0688                 1.0703                 1.0693
 Frc consts  --      5.7400                 5.7574                 5.8435
 IR Inten    --     37.9176                98.8926                54.3148

                     73                     74                     75
                      A                      A                      A
 Frequencies --   3058.6580              3068.1490              3069.3797
 Red. masses --      1.0651                 1.0633                 1.0621
 Frc consts  --      5.8711                 5.8976                 5.8953
 IR Inten    --     23.0321                36.9559                36.7170

                     76                     77                     78
                      A                      A                      A
 Frequencies --   3078.1816              3081.6564              3111.3455
 Red. masses --      1.0677                 1.0617                 1.0968
 Frc consts  --      5.9604                 5.9407                 6.2556
 IR Inten    --     12.1499                26.9898                16.9628

                     79                     80                     81
                      A                      A                      A
 Frequencies --   3114.2119              3117.0589              3119.6560
 Red. masses --      1.0944                 1.0905                 1.1012
 Frc consts  --      6.2534                 6.2428                 6.3146
 IR Inten    --     47.1053                60.3658                61.6711

                     82                     83                     84
                      A                      A                      A
 Frequencies --   3122.7466              3124.9595              3131.7897
 Red. masses --      1.1008                 1.0954                 1.0989
 Frc consts  --      6.3248                 6.3022                 6.3502
 IR Inten    --     62.3204                31.5027                62.4511

                     85                     86                     87
                      A                      A                      A
 Frequencies --   3134.1572              3134.3228              3147.5788
 Red. masses --      1.0951                 1.0956                 1.0866
 Frc consts  --      6.3381                 6.3414                 6.3428
 IR Inten    --     39.8997                26.5094                44.9952

 - Thermochemistry -
 -------------------
 Temperature   298.150 Kelvin.  Pressure   1.00000 Atm.
 Atom     1 has atomic number  6 and mass  12.00000

 Molecular mass:   186.12559 amu.
 Principal axes and moments of inertia in atomic units:
                           1         2         3
     Eigenvalues --  1210.401953797.499553933.83899
           X            0.99987  -0.00594   0.01468
           Y            0.00575   0.99989   0.01333
           Z           -0.01476  -0.01324   0.99980
 This molecule is an asymmetric top.
 Rotational symmetry number  1.
 Warning -- assumption of classical behavior for rotation
           may cause significant error
 Rotational temperatures (Kelvin)      0.07156     0.02281     0.02202
 Rotational constants (GHZ):           1.49103     0.47524     0.45877
    1 imaginary frequencies ignored.
 Zero-point vibrational energy     736864.5 (Joules/Mol)
                                  176.11484 (Kcal/Mol)
 Warning -- explicit consideration of  17 degrees of freedom as
           vibrations may cause significant error
 Vibrational temperatures:     62.53   114.26   184.44   295.20   322.05
          (Kelvin)            366.94   433.66   474.04   515.73   566.14
                              606.23   644.69   663.01   710.54   732.13
                              804.51   850.57  1070.71  1141.80  1191.40
                             1208.66  1258.66  1282.48  1292.32  1299.44
                             1341.65  1359.51  1389.01  1429.56  1459.92
                             1513.24  1521.21  1536.33  1544.29  1592.21
                             1651.67  1653.71  1662.54  1702.04  1720.98
                             1740.97  1757.16  1785.20  1796.30  1870.18
                             1875.73  1896.93  1910.64  1934.39  1945.73
                             1963.20  1988.99  1990.56  1999.66  2002.11
                             2020.40  2032.36  2049.38  2055.51  2083.35
                             2123.24  2131.37  2133.82  2151.65  2160.06
                             2173.32  2178.65  2188.00  4343.96  4347.31
                             4381.78  4400.73  4414.38  4416.15  4428.82
                             4433.82  4476.53  4480.66  4484.75  4488.49
                             4492.94  4496.12  4505.95  4509.35  4509.59
                             4528.66

 Zero-point correction=                           0.280657 (Hartree/Particle)
 Thermal correction to Energy=                    0.291642
 Thermal correction to Enthalpy=                  0.292586
 Thermal correction to Gibbs Free Energy=         0.243570
 Sum of electronic and zero-point Energies=           -617.212048
 Sum of electronic and thermal Energies=              -617.201063
 Sum of electronic and thermal Enthalpies=            -617.200119
 Sum of electronic and thermal Free Energies=         -617.249135

                     E (Thermal)             CV                S
                      KCal/Mol        Cal/Mol-Kelvin    Cal/Mol-Kelvin
 Total                  183.008             44.942            103.163
 Electronic               0.000              0.000              0.000
 Translational            0.889              2.981             41.570
 Rotational               0.889              2.981             31.270
 Vibrational            181.231             38.981             30.323
 Vibration     1          0.595              1.980              5.095
 Vibration     2          0.600              1.963              3.905
 Vibration     3          0.611              1.925              2.973
 Vibration     4          0.640              1.833              2.086
 Vibration     5          0.649              1.805              1.928
 Vibration     6          0.665              1.754              1.695
 Vibration     7          0.693              1.671              1.409
 Vibration     8          0.712              1.617              1.263
 Vibration     9          0.733              1.558              1.129
 Vibration    10          0.761              1.484              0.987
 Vibration    11          0.784              1.424              0.887
 Vibration    12          0.807              1.365              0.802
 Vibration    13          0.819              1.337              0.764
 Vibration    14          0.850              1.264              0.674
 Vibration    15          0.864              1.230              0.636
 Vibration    16          0.915              1.120              0.526
 Vibration    17          0.949              1.051              0.465

 Optimization completed.
    -- Stationary point found.
 Normal termination of Gaussian 16 at Sun Nov  4 23:08:08 2018.
