 Gaussian 16, Revision A.03,
 Gaussian 16:  ES64L-G16RevA.03 25-Dec-2016

 ----------------------------------------------------------------------
 #M062X/6-311++G(2d,2p) opt=ModRedundant freq=noraman SCRF=(Solvent=Wat
 er)
 ----------------------------------------------------------------------

 ---------------------------
 L_a1-e4_D_PHI.inp_extract_1
 ---------------------------
 Symbolic Z-matrix:
 Charge =  0 Multiplicity = 1

 SCF Done:  E(RM062X) =  -617.502450992     A.U. after   12 cycles
 SCF Done:  E(RM062X) =  -617.504104673     A.U. after   11 cycles
 SCF Done:  E(RM062X) =  -617.504217227     A.U. after    9 cycles
 SCF Done:  E(RM062X) =  -617.504234418     A.U. after    9 cycles
 SCF Done:  E(RM062X) =  -617.504235940     A.U. after    8 cycles
 SCF Done:  E(RM062X) =  -617.504235990     A.U. after    7 cycles
 SCF Done:  E(RM062X) =  -617.504235875     A.U. after    8 cycles
 SCF Done:  E(RM062X) =  -617.504235687     A.U. after    8 cycles
 SCF Done:  E(RM062X) =  -617.504235452     A.U. after    8 cycles
 SCF Done:  E(RM062X) =  -617.504227194     A.U. after    9 cycles
 SCF Done:  E(RM062X) =  -617.504235379     A.U. after    8 cycles
 SCF Done:  E(RM062X) =  -617.504235970     A.U. after    7 cycles
 SCF Done:  E(RM062X) =  -617.504235467     A.U. after    9 cycles
 Optimization completed.
    -- Stationary point found.
 Normal termination of Gaussian 16 at Sun Nov  4 22:22:20 2018.

 ----------------------------------------------------------------------
 #N Geom=AllCheck Guess=TCheck SCRF=Check GenChk RM062X/6-311++G(2d,2p)
  Freq
 ----------------------------------------------------------------------

 Structure from the checkpoint file:  "L_a1-e4_D_PHI.inp_extract_1.chk"
 ---------------------------
 L_a1-e4_D_PHI.inp_extract_1
 ---------------------------
 Charge =  0 Multiplicity = 1

                         Standard orientation:
 ---------------------------------------------------------------------
 Center     Atomic      Atomic             Coordinates (Angstroms)
 Number     Number       Type             X           Y           Z
 ---------------------------------------------------------------------
      1          6           0        2.121704    1.078077    1.011589
      2          8           0        1.553787   -0.195800    1.323116
      3          6           0        3.150873    0.118375   -1.047534
      4          8           0       -3.089231   -0.871122    0.710225
      5          6           0        1.257571   -0.971667    0.186008
      6          6           0        2.484586   -1.206491   -0.678606
      7          6           0       -2.992519    1.370655   -0.222317
      8          8           0        0.283991   -0.356015   -0.629388
      9          6           0       -1.610818    1.073289   -0.804294
     10          6           0       -3.787129    0.082159   -0.081245
     11          6           0       -0.930949   -0.006072    0.019338
     12          6           0       -1.847000   -1.223307    0.129701
     13          6           0        3.410483    0.930244    0.220883
     14          1           0        1.395522    1.670469    0.446543
     15          1           0        2.290779    1.564231    1.969621
     16          1           0        2.495786    0.683543   -1.713038
     17          1           0        4.080010   -0.066634   -1.585363
     18          1           0        0.874040   -1.910458    0.590799
     19          1           0        3.177717   -1.823924   -0.104683
     20          1           0        2.189221   -1.768608   -1.563672
     21          1           0       -3.537436    2.067396   -0.859313
     22          1           0       -2.890858    1.832846    0.761850
     23          1           0       -1.710617    0.709858   -1.831101
     24          1           0       -0.988289    1.967955   -0.828662
     25          1           0       -4.738725    0.253832    0.417106
     26          1           0       -3.984978   -0.348196   -1.070635
     27          1           0       -0.722148    0.374202    1.022458
     28          1           0       -1.412142   -1.993159    0.764395
     29          1           0       -2.000522   -1.640745   -0.873592
     30          1           0        3.802807    1.919246   -0.017482
     31          1           0        4.150656    0.420071    0.842003
 ---------------------------------------------------------------------

 SCF Done:  E(RM062X) =  -617.504235467     A.U. after    1 cycles

 The electronic state is 1-A.
 Alpha  occ. eigenvalues --  -19.63383 -19.63180 -19.63176 -10.63602 -10.58521
 Alpha  occ. eigenvalues --  -10.58067 -10.58025 -10.57903 -10.53298 -10.53247
 Alpha  occ. eigenvalues --  -10.53122 -10.53018 -10.52928  -1.20256  -1.16652
 Alpha  occ. eigenvalues --   -1.13510  -0.91176  -0.89812  -0.87182  -0.84560
 Alpha  occ. eigenvalues --   -0.74836  -0.74123  -0.72930  -0.70692  -0.65675
 Alpha  occ. eigenvalues --   -0.64227  -0.59922  -0.59012  -0.57416  -0.56119
 Alpha  occ. eigenvalues --   -0.53878  -0.53280  -0.52195  -0.51041  -0.49696
 Alpha  occ. eigenvalues --   -0.47962  -0.46765  -0.46134  -0.45637  -0.45468
 Alpha  occ. eigenvalues --   -0.44120  -0.42823  -0.40604  -0.40107  -0.39092
 Alpha  occ. eigenvalues --   -0.38427  -0.38207  -0.36502  -0.35799  -0.33464
 Alpha  occ. eigenvalues --   -0.31826
 Alpha virt. eigenvalues --   -0.00069   0.00764   0.00927   0.01023   0.02183
 Alpha virt. eigenvalues --    0.02487   0.02623   0.03324   0.03666   0.04381
 Alpha virt. eigenvalues --    0.04657   0.04795   0.05469   0.05979   0.07013

 Mulliken charges:
               1
     1  C   -0.149348
     2  O   -0.280105
     3  C   -0.298533
     4  O   -0.315430
     5  C   -0.061255
     6  C   -0.368567
     7  C   -0.354429
     8  O   -0.246854
     9  C   -0.106955
    10  C   -0.169522
    11  C   -0.407069
    12  C   -0.274679
    13  C   -0.363892
    14  H    0.118075
    15  H    0.206789
    16  H    0.177713
    17  H    0.180339
    18  H    0.241159
    19  H    0.191219
    20  H    0.180487
    21  H    0.190019
    22  H    0.162292
    23  H    0.211861
    24  H    0.150168
    25  H    0.207039
    26  H    0.137017
    27  H    0.304825
    28  H    0.211984
    29  H    0.185877
    30  H    0.172201
    31  H    0.167573
 Sum of Mulliken charges =  -0.00000

 Dipole moment (field-independent basis, Debye):
    X=              0.9812    Y=              1.6022    Z=             -1.7907  Tot=              2.5955
 Quadrupole moment (field-independent basis, Debye-Ang):
   XX=            -75.0474   YY=            -76.3988   ZZ=            -85.1563
   XY=             -4.0119   XZ=              3.7512   YZ=              2.4053

  Exact polarizability: 174.362  -2.066 159.543  -0.176   1.780 151.320
 Approx polarizability: 145.852  -1.738 143.248   0.703   0.215 142.951

 ******    1 imaginary frequencies (negative Signs) ******

                      1                      2                      3
                      A                      A                      A
 Frequencies --     -4.4641                57.6314                88.7976
 Red. masses --      3.7309                 3.7228                 3.3596
 Frc consts  --      0.0000                 0.0073                 0.0156
 IR Inten    --      0.1118                 0.9086                 0.3627

                      4                      5                      6
                      A                      A                      A
 Frequencies --    150.4399               173.3665               235.9789
 Red. masses --      4.1437                 2.5527                 2.4407
 Frc consts  --      0.0553                 0.0452                 0.0801
 IR Inten    --      4.0968                 0.7707                 9.6267

                      7                      8                      9
                      A                      A                      A
 Frequencies --    255.8923               290.6780               343.1701
 Red. masses --      2.3851                 2.3577                 2.7062
 Frc consts  --      0.0920                 0.1174                 0.1878
 IR Inten    --      1.5482                 5.0778                 9.2084

                     10                     11                     12
                      A                      A                      A
 Frequencies --    374.5584               378.3103               435.7486
 Red. masses --      2.5699                 2.4815                 3.3962
 Frc consts  --      0.2124                 0.2093                 0.3799
 IR Inten    --      7.5481                28.2197                 9.7343

                     13                     14                     15
                      A                      A                      A
 Frequencies --    452.1595               468.2789               477.9166
 Red. masses --      3.6782                 3.3280                 2.2188
 Frc consts  --      0.4431                 0.4300                 0.2986
 IR Inten    --      2.9878                 0.6448                 0.9216

                     16                     17                     18
                      A                      A                      A
 Frequencies --    532.6071               577.6209               614.3182
 Red. masses --      2.2740                 2.3715                 2.7410
 Frc consts  --      0.3801                 0.4662                 0.6095
 IR Inten    --      2.1035                 8.2832                 4.8912

                     19                     20                     21
                      A                      A                      A
 Frequencies --    723.7899               832.0019               833.6248
 Red. masses --      3.0378                 1.5170                 2.3075
 Frc consts  --      0.9377                 0.6187                 0.9448
 IR Inten    --      1.5891                 2.1957                 0.7195

                     22                     23                     24
                      A                      A                      A
 Frequencies --    840.1113               880.6824               890.4659
 Red. masses --      3.2091                 1.4017                 2.2678
 Frc consts  --      1.3345                 0.6405                 1.0595
 IR Inten    --      8.3337                 9.7240                 7.0859

                     25                     26                     27
                      A                      A                      A
 Frequencies --    899.5422               907.2681               926.8750
 Red. masses --      2.3777                 2.5184                 1.6810
 Frc consts  --      1.1336                 1.2214                 0.8509
 IR Inten    --     28.1501                10.6111                23.0670

                     28                     29                     30
                      A                      A                      A
 Frequencies --    943.6316               987.5825               995.5210
 Red. masses --      2.1693                 2.1700                 1.4842
 Frc consts  --      1.1381                 1.2470                 0.8667
 IR Inten    --     33.8387                71.6042                 8.7682

                     31                     32                     33
                      A                      A                      A
 Frequencies --   1023.5618              1040.7659              1055.0183
 Red. masses --      2.2842                 2.3169                 1.7222
 Frc consts  --      1.4100                 1.4787                 1.1294
 IR Inten    --     31.9178                87.4437                36.3092

                     34                     35                     36
                      A                      A                      A
 Frequencies --   1062.5316              1071.0409              1114.1051
 Red. masses --      1.5140                 2.2750                 4.5216
 Frc consts  --      1.0071                 1.5376                 3.3067
 IR Inten    --     56.6819                10.8625               268.9721

                     37                     38                     39
                      A                      A                      A
 Frequencies --   1148.3064              1151.9375              1164.0976
 Red. masses --      2.7904                 2.6802                 2.4345
 Frc consts  --      2.1679                 2.0954                 1.9438
 IR Inten    --     88.6292                79.7818                20.3433

                     40                     41                     42
                      A                      A                      A
 Frequencies --   1173.6926              1191.9165              1208.7850
 Red. masses --      3.5729                 2.1569                 1.4350
 Frc consts  --      2.8999                 1.8054                 1.2354
 IR Inten    --    167.7059                34.8841                 7.2417

                     43                     44                     45
                      A                      A                      A
 Frequencies --   1222.4078              1232.9264              1253.0193
 Red. masses --      1.6553                 1.6443                 1.4908
 Frc consts  --      1.4573                 1.4727                 1.3790
 IR Inten    --     35.4000                62.8648                22.5703

                     46                     47                     48
                      A                      A                      A
 Frequencies --   1287.8766              1304.5343              1320.1622
 Red. masses --      1.2196                 1.1757                 1.1479
 Frc consts  --      1.1919                 1.1789                 1.1787
 IR Inten    --     18.5308                17.0585                 7.7199

                     49                     50                     51
                      A                      A                      A
 Frequencies --   1330.1804              1342.9373              1350.6531
 Red. masses --      1.2751                 1.2292                 1.2790
 Frc consts  --      1.3293                 1.3061                 1.3747
 IR Inten    --      7.4222                 5.5939                17.0754

                     52                     53                     54
                      A                      A                      A
 Frequencies --   1361.2019              1381.9545              1384.1361
 Red. masses --      1.3122                 1.4515                 1.4632
 Frc consts  --      1.4325                 1.6333                 1.6516
 IR Inten    --      0.3253                 3.2387                 3.0594

                     55                     56                     57
                      A                      A                      A
 Frequencies --   1390.2295              1401.5719              1402.8734
 Red. masses --      1.7015                 1.2873                 1.3796
 Frc consts  --      1.9375                 1.4899                 1.5997
 IR Inten    --     13.6755                21.5261                 5.3660

                     58                     59                     60
                      A                      A                      A
 Frequencies --   1407.9031              1421.7375              1432.1369
 Red. masses --      1.3797                 1.5251                 1.4510
 Frc consts  --      1.6113                 1.8163                 1.7534
 IR Inten    --      9.3675                 8.0118                10.3574

                     61                     62                     63
                      A                      A                      A
 Frequencies --   1436.3134              1474.5169              1480.3602
 Red. masses --      1.3472                 1.1040                 1.0932
 Frc consts  --      1.6375                 1.4142                 1.4116
 IR Inten    --     10.5992                 6.0749                 8.1491

                     64                     65                     66
                      A                      A                      A
 Frequencies --   1482.0640              1495.3400              1496.5291
 Red. masses --      1.0871                 1.1092                 1.1075
 Frc consts  --      1.4069                 1.4613                 1.4614
 IR Inten    --      7.2080                15.1791                 8.8344

                     67                     68                     69
                      A                      A                      A
 Frequencies --   1501.9968              1509.1475              1515.0541
 Red. masses --      1.0890                 1.0934                 1.1015
 Frc consts  --      1.4475                 1.4672                 1.4897
 IR Inten    --      0.6449                 4.4387                 8.6314

                     70                     71                     72
                      A                      A                      A
 Frequencies --   3017.9447              3021.1132              3050.2994
 Red. masses --      1.0692                 1.0704                 1.0693
 Frc consts  --      5.7378                 5.7564                 5.8617
 IR Inten    --     34.5339                96.5051                54.4697

                     73                     74                     75
                      A                      A                      A
 Frequencies --   3056.0152              3063.7297              3071.0922
 Red. masses --      1.0661                 1.0631                 1.0633
 Frc consts  --      5.8660                 5.8791                 5.9085
 IR Inten    --     19.6275                40.6957                20.4800

                     76                     77                     78
                      A                      A                      A
 Frequencies --   3073.3626              3075.0833              3076.2618
 Red. masses --      1.0733                 1.0733                 1.0700
 Frc consts  --      5.9733                 5.9800                 5.9661
 IR Inten    --     15.1803                77.1684                 8.0589

                     79                     80                     81
                      A                      A                      A
 Frequencies --   3085.3635              3113.7653              3114.3998
 Red. masses --      1.0737                 1.0989                 1.0982
 Frc consts  --      6.0219                 6.2771                 6.2758
 IR Inten    --     77.9306                43.1671                38.6884

                     82                     83                     84
                      A                      A                      A
 Frequencies --   3120.8513              3121.4269              3131.3024
 Red. masses --      1.1023                 1.1026                 1.1033
 Frc consts  --      6.3256                 6.3297                 6.3735
 IR Inten    --     58.3814                54.1442                26.9886

                     85                     86                     87
                      A                      A                      A
 Frequencies --   3131.9401              3135.0971              3136.8911
 Red. masses --      1.0947                 1.0951                 1.0975
 Frc consts  --      6.3269                 6.3420                 6.3629
 IR Inten    --     61.7213                38.4674                46.9972

 - Thermochemistry -
 -------------------
 Temperature   298.150 Kelvin.  Pressure   1.00000 Atm.
 Atom     1 has atomic number  6 and mass  12.00000

 Molecular mass:   186.12559 amu.
 Principal axes and moments of inertia in atomic units:
                           1         2         3
     Eigenvalues --   952.011154334.239824535.30163
           X            0.99999  -0.00493   0.00134
           Y            0.00487   0.99918   0.04028
           Z           -0.00153  -0.04027   0.99919
 This molecule is an asymmetric top.
 Rotational symmetry number  1.
 Warning -- assumption of classical behavior for rotation
           may cause significant error
 Rotational temperatures (Kelvin)      0.09098     0.01998     0.01910
 Rotational constants (GHZ):           1.89571     0.41639     0.39793
    1 imaginary frequencies ignored.
 Zero-point vibrational energy     736840.0 (Joules/Mol)
                                  176.10899 (Kcal/Mol)
 Warning -- explicit consideration of  17 degrees of freedom as
           vibrations may cause significant error
 Vibrational temperatures:     82.92   127.76   216.45   249.44   339.52
          (Kelvin)            368.17   418.22   493.75   538.91   544.30
                              626.95   650.56   673.75   687.62   766.30
                              831.07   883.87  1041.37  1197.07  1199.40
                             1208.73  1267.11  1281.18  1294.24  1305.36
                             1333.57  1357.68  1420.91  1432.33  1472.68
                             1497.43  1517.94  1528.75  1540.99  1602.95
                             1652.16  1657.38  1674.88  1688.68  1714.90
                             1739.17  1758.77  1773.91  1802.82  1852.97
                             1876.93  1899.42  1913.83  1932.19  1943.29
                             1958.47  1988.32  1991.46  2000.23  2016.55
                             2018.42  2025.66  2045.56  2060.53  2066.53
                             2121.50  2129.91  2132.36  2151.46  2153.17
                             2161.04  2171.33  2179.82  4342.15  4346.71
                             4388.70  4396.92  4408.02  4418.62  4421.88
                             4424.36  4426.05  4439.15  4480.01  4480.93
                             4490.21  4491.04  4505.25  4506.16  4510.71
                             4513.29

 Zero-point correction=                           0.280648 (Hartree/Particle)
 Thermal correction to Energy=                    0.291515
 Thermal correction to Enthalpy=                  0.292459
 Thermal correction to Gibbs Free Energy=         0.243937
 Sum of electronic and zero-point Energies=           -617.223588
 Sum of electronic and thermal Energies=              -617.212720
 Sum of electronic and thermal Enthalpies=            -617.211776
 Sum of electronic and thermal Free Energies=         -617.260298

                     E (Thermal)             CV                S
                      KCal/Mol        Cal/Mol-Kelvin    Cal/Mol-Kelvin
 Total                  182.929             44.714            102.123
 Electronic               0.000              0.000              0.000
 Translational            0.889              2.981             41.570
 Rotational               0.889              2.981             31.304
 Vibrational            181.151             38.752             29.249
 Vibration     1          0.596              1.974              4.537
 Vibration     2          0.602              1.957              3.686
 Vibration     3          0.618              1.902              2.667
 Vibration     4          0.627              1.875              2.399
 Vibration     5          0.655              1.786              1.833
 Vibration     6          0.666              1.753              1.690
 Vibration     7          0.687              1.691              1.470
 Vibration     8          0.722              1.589              1.197
 Vibration     9          0.746              1.524              1.061
 Vibration    10          0.749              1.516              1.046
 Vibration    11          0.796              1.392              0.840
 Vibration    12          0.811              1.356              0.789
 Vibration    13          0.825              1.320              0.742
 Vibration    14          0.834              1.299              0.716
 Vibration    15          0.888              1.178              0.581
 Vibration    16          0.934              1.080              0.490
 Vibration    17          0.974              1.002              0.426

 Optimization completed.
    -- Stationary point found.
 Normal termination of Gaussian 16 at Sun Nov  4 23:24:06 2018.
