 Gaussian 16, Revision A.03,
 Gaussian 16:  ES64L-G16RevA.03 25-Dec-2016

 ----------------------------------------------------------------------
 #M062X/6-311++G(2d,2p) opt=ModRedundant freq=noraman SCRF=(Solvent=Wat
 er)
 ----------------------------------------------------------------------

 ----------------------------
 L_a1-e4_D_PHI.inp_extract_16
 ----------------------------
 Symbolic Z-matrix:
 Charge =  0 Multiplicity = 1

 SCF Done:  E(RM062X) =  -617.498023554     A.U. after   12 cycles
 SCF Done:  E(RM062X) =  -617.499778887     A.U. after   10 cycles
 SCF Done:  E(RM062X) =  -617.499921784     A.U. after    9 cycles
 SCF Done:  E(RM062X) =  -617.500019060     A.U. after    9 cycles
 SCF Done:  E(RM062X) =  -617.500023988     A.U. after    8 cycles
 SCF Done:  E(RM062X) =  -617.500024669     A.U. after    7 cycles
 Optimization completed.
    -- Stationary point found.
 Normal termination of Gaussian 16 at Sun Nov  4 21:54:28 2018.

 ----------------------------------------------------------------------
 #N Geom=AllCheck Guess=TCheck SCRF=Check GenChk RM062X/6-311++G(2d,2p)
  Freq
 ----------------------------------------------------------------------

 Structure from the checkpoint file:  "L_a1-e4_D_PHI.inp_extract_16.chk"
 ----------------------------
 L_a1-e4_D_PHI.inp_extract_16
 ----------------------------
 Charge =  0 Multiplicity = 1

                         Standard orientation:
 ---------------------------------------------------------------------
 Center     Atomic      Atomic             Coordinates (Angstroms)
 Number     Number       Type             X           Y           Z
 ---------------------------------------------------------------------
      1          6           0        3.007947   -0.937055   -0.543789
      2          8           0        2.398117    0.077491   -1.347295
      3          6           0        2.218041    0.225906    1.513817
      4          8           0       -2.956886   -1.222817    0.631876
      5          6           0        1.263068    0.659549   -0.768938
      6          6           0        1.594017    1.268799    0.589692
      7          6           0       -3.054913    1.159040    0.172848
      8          8           0        0.277891   -0.360832   -0.711338
      9          6           0       -1.697656    1.089568   -0.528925
     10          6           0       -3.760483   -0.184100    0.085732
     11          6           0       -0.902588   -0.088856    0.022518
     12          6           0       -1.736990   -1.360401   -0.068381
     13          6           0        3.423485   -0.400843    0.815147
     14          1           0        2.312312   -1.770587   -0.425888
     15          1           0        3.865530   -1.280350   -1.117660
     16          1           0        1.485741   -0.552574    1.742919
     17          1           0        2.510187    0.684176    2.457775
     18          1           0        0.944061    1.432458   -1.471395
     19          1           0        2.310017    2.071160    0.401619
     20          1           0        0.711547    1.729629    1.030933
     21          1           0       -3.680115    1.930749   -0.276069
     22          1           0       -2.916312    1.418064    1.224727
     23          1           0       -1.838428    0.932532   -1.602397
     24          1           0       -1.153379    2.025942   -0.401507
     25          1           0       -4.687705   -0.184422    0.654405
     26          1           0       -3.992819   -0.420962   -0.959672
     27          1           0       -0.668899    0.085318    1.077998
     28          1           0       -1.199131   -2.195290    0.376862
     29          1           0       -1.927772   -1.586173   -1.124848
     30          1           0        3.846018   -1.213235    1.406966
     31          1           0        4.202599    0.353182    0.680960
 ---------------------------------------------------------------------

 SCF Done:  E(RM062X) =  -617.500024669     A.U. after    1 cycles

 The electronic state is 1-A.
 Alpha  occ. eigenvalues --  -19.63238 -19.63238 -19.63231 -10.63826 -10.58980
 Alpha  occ. eigenvalues --  -10.58194 -10.58126 -10.57793 -10.53454 -10.53407
 Alpha  occ. eigenvalues --  -10.53279 -10.53239 -10.52965  -1.20188  -1.16812
 Alpha  occ. eigenvalues --   -1.13613  -0.90432  -0.90274  -0.87556  -0.84872
 Alpha  occ. eigenvalues --   -0.75332  -0.74073  -0.72997  -0.70838  -0.66014
 Alpha  occ. eigenvalues --   -0.63984  -0.59747  -0.58401  -0.58116  -0.56015
 Alpha  occ. eigenvalues --   -0.54724  -0.53625  -0.51555  -0.51246  -0.49566
 Alpha  occ. eigenvalues --   -0.48620  -0.47476  -0.46280  -0.46035  -0.45539
 Alpha  occ. eigenvalues --   -0.43767  -0.42260  -0.41031  -0.40827  -0.39006
 Alpha  occ. eigenvalues --   -0.38632  -0.37761  -0.37582  -0.34909  -0.32716
 Alpha  occ. eigenvalues --   -0.32315
 Alpha virt. eigenvalues --   -0.00105   0.00782   0.00920   0.00996   0.02204
 Alpha virt. eigenvalues --    0.02504   0.02720   0.03507   0.03539   0.04491
 Alpha virt. eigenvalues --    0.04673   0.04785   0.05519   0.06088   0.07213

 Mulliken charges:
               1
     1  C   -0.236699
     2  O   -0.304819
     3  C   -0.236255
     4  O   -0.321226
     5  C   -0.114966
     6  C   -0.249441
     7  C   -0.388527
     8  O   -0.350433
     9  C   -0.188866
    10  C   -0.218189
    11  C   -0.232084
    12  C   -0.274436
    13  C   -0.390450
    14  H    0.168976
    15  H    0.214047
    16  H    0.161162
    17  H    0.186215
    18  H    0.274212
    19  H    0.221970
    20  H    0.198681
    21  H    0.179942
    22  H    0.165543
    23  H    0.232810
    24  H    0.148803
    25  H    0.207070
    26  H    0.145898
    27  H    0.266215
    28  H    0.207413
    29  H    0.189405
    30  H    0.168988
    31  H    0.169044
 Sum of Mulliken charges =  -0.00000

 Dipole moment (field-independent basis, Debye):
    X=             -0.3238    Y=              2.3593    Z=              1.5649  Tot=              2.8495
 Quadrupole moment (field-independent basis, Debye-Ang):
   XX=            -76.5582   YY=            -79.0390   ZZ=            -84.7681
   XY=             -7.3017   XZ=              9.3169   YZ=              1.1753

  Exact polarizability: 176.190  -4.871 156.646  -0.897   0.304 151.631
 Approx polarizability: 148.126  -2.339 142.740  -1.936  -0.773 141.813

                      1                      2                      3
                      A                      A                      A
 Frequencies --     53.2414                64.7916               105.3025
 Red. masses --      4.1832                 3.3472                 3.2808
 Frc consts  --      0.0070                 0.0083                 0.0214
 IR Inten    --      1.1979                 2.2571                 0.4675

                      4                      5                      6
                      A                      A                      A
 Frequencies --    150.2514               194.7748               234.5107
 Red. masses --      3.4705                 2.9647                 2.8707
 Frc consts  --      0.0462                 0.0663                 0.0930
 IR Inten    --      0.5256                 4.8721                 3.3562

                      7                      8                      9
                      A                      A                      A
 Frequencies --    252.2152               281.2924               347.4858
 Red. masses --      1.9416                 3.1975                 2.4093
 Frc consts  --      0.0728                 0.1491                 0.1714
 IR Inten    --      5.2786                 2.1797                 1.2611

                     10                     11                     12
                      A                      A                      A
 Frequencies --    386.4078               398.5743               433.7514
 Red. masses --      2.3902                 3.2044                 2.6965
 Frc consts  --      0.2103                 0.2999                 0.2989
 IR Inten    --     28.4980                 9.9041                 1.3379

                     13                     14                     15
                      A                      A                      A
 Frequencies --    449.6072               469.4485               484.9685
 Red. masses --      3.5830                 3.2530                 2.3713
 Frc consts  --      0.4267                 0.4224                 0.3286
 IR Inten    --      2.3192                 5.1129                 1.2543

                     16                     17                     18
                      A                      A                      A
 Frequencies --    536.6404               544.6667               634.8119
 Red. masses --      2.7410                 1.9910                 2.5320
 Frc consts  --      0.4651                 0.3480                 0.6012
 IR Inten    --      0.7945                 1.8161                13.2514

                     19                     20                     21
                      A                      A                      A
 Frequencies --    720.4162               828.3894               830.1147
 Red. masses --      3.0316                 2.2254                 1.9744
 Frc consts  --      0.9270                 0.8997                 0.8016
 IR Inten    --      8.8953                 0.5667                 0.0866

                     22                     23                     24
                      A                      A                      A
 Frequencies --    842.6304               879.3225               889.0688
 Red. masses --      2.3692                 1.4296                 2.3767
 Frc consts  --      0.9911                 0.6513                 1.1069
 IR Inten    --      3.4385                17.0055                 5.2375

                     25                     26                     27
                      A                      A                      A
 Frequencies --    899.4817               905.8138               931.0481
 Red. masses --      2.3787                 2.3412                 1.6683
 Frc consts  --      1.1339                 1.1318                 0.8520
 IR Inten    --      8.1970                47.7578                28.0837

                     28                     29                     30
                      A                      A                      A
 Frequencies --    943.4297               979.4524              1001.6171
 Red. masses --      2.1737                 2.3626                 1.4734
 Frc consts  --      1.1399                 1.3354                 0.8709
 IR Inten    --     41.9544                23.9536                17.4907

                     31                     32                     33
                      A                      A                      A
 Frequencies --   1018.6903              1044.3449              1059.7015
 Red. masses --      2.2836                 2.2683                 1.6799
 Frc consts  --      1.3962                 1.4576                 1.1115
 IR Inten    --     48.6290                73.2409                12.7836

                     34                     35                     36
                      A                      A                      A
 Frequencies --   1068.1944              1075.8187              1128.6613
 Red. masses --      1.6598                 2.0836                 2.8911
 Frc consts  --      1.1158                 1.4208                 2.1699
 IR Inten    --     75.3659                 6.9986               136.8653

                     37                     38                     39
                      A                      A                      A
 Frequencies --   1150.9064              1154.2438              1166.4203
 Red. masses --      2.6196                 3.1033                 3.0054
 Frc consts  --      2.0444                 2.4360                 2.4091
 IR Inten    --     45.5219               244.2002               104.9740

                     40                     41                     42
                      A                      A                      A
 Frequencies --   1182.6222              1194.1471              1211.1748
 Red. masses --      2.3768                 2.7145                 1.5191
 Frc consts  --      1.9586                 2.2806                 1.3130
 IR Inten    --     16.3641               102.9559                20.4858

                     43                     44                     45
                      A                      A                      A
 Frequencies --   1215.8178              1240.0081              1253.5060
 Red. masses --      1.4803                 1.8315                 1.5336
 Frc consts  --      1.2892                 1.6592                 1.4198
 IR Inten    --     78.3837                36.6221                54.5887

                     46                     47                     48
                      A                      A                      A
 Frequencies --   1286.1175              1302.9700              1321.4004
 Red. masses --      1.2136                 1.1820                 1.1537
 Frc consts  --      1.1827                 1.1823                 1.1869
 IR Inten    --     20.0173                 5.2875                 6.6998

                     49                     50                     51
                      A                      A                      A
 Frequencies --   1332.0961              1346.4287              1354.8795
 Red. masses --      1.2721                 1.2349                 1.2532
 Frc consts  --      1.3300                 1.3190                 1.3554
 IR Inten    --      8.4441                 2.8901                11.0019

                     52                     53                     54
                      A                      A                      A
 Frequencies --   1361.8146              1378.3836              1383.2921
 Red. masses --      1.3164                 1.4097                 1.5041
 Frc consts  --      1.4384                 1.5781                 1.6957
 IR Inten    --      5.0364                13.8257                11.7016

                     55                     56                     57
                      A                      A                      A
 Frequencies --   1391.4393              1396.4986              1402.9138
 Red. masses --      1.5637                 1.2740                 1.4510
 Frc consts  --      1.7837                 1.4639                 1.6826
 IR Inten    --      6.9578                14.9526                14.8111

                     58                     59                     60
                      A                      A                      A
 Frequencies --   1408.8696              1416.3717              1432.3451
 Red. masses --      1.3904                 1.4108                 1.4347
 Frc consts  --      1.6260                 1.6675                 1.7343
 IR Inten    --      6.0521                 5.7800                 6.4470

                     61                     62                     63
                      A                      A                      A
 Frequencies --   1438.3862              1479.7520              1480.8659
 Red. masses --      1.4308                 1.0931                 1.0969
 Frc consts  --      1.7442                 1.4102                 1.4172
 IR Inten    --     15.6718                 8.2085                 4.0678

                     64                     65                     66
                      A                      A                      A
 Frequencies --   1488.5897              1497.1014              1499.9075
 Red. masses --      1.0891                 1.1073                 1.1070
 Frc consts  --      1.4219                 1.4622                 1.4674
 IR Inten    --      8.8796                14.2741                21.8023

                     67                     68                     69
                      A                      A                      A
 Frequencies --   1502.7567              1511.1729              1515.4103
 Red. masses --      1.0873                 1.0932                 1.1017
 Frc consts  --      1.4466                 1.4709                 1.4906
 IR Inten    --      0.9468                 4.4480                 8.1266

                     70                     71                     72
                      A                      A                      A
 Frequencies --   3021.4065              3023.5159              3045.8990
 Red. masses --      1.0696                 1.0698                 1.0782
 Frc consts  --      5.7529                 5.7619                 5.8937
 IR Inten    --     30.2484                89.4899                25.3365

                     73                     74                     75
                      A                      A                      A
 Frequencies --   3057.6958              3060.3055              3065.2942
 Red. masses --      1.0677                 1.0682                 1.0630
 Frc consts  --      5.8816                 5.8943                 5.8848
 IR Inten    --     51.9306                30.4512                42.7265

                     76                     77                     78
                      A                      A                      A
 Frequencies --   3070.6100              3071.8422              3073.4586
 Red. masses --      1.0648                 1.0665                 1.0749
 Frc consts  --      5.9154                 5.9296                 5.9821
 IR Inten    --     45.0204                43.7171                35.5963

                     79                     80                     81
                      A                      A                      A
 Frequencies --   3085.1206              3110.7778              3114.6496
 Red. masses --      1.0705                 1.0987                 1.0975
 Frc consts  --      6.0033                 6.2645                 6.2731
 IR Inten    --     59.3101                45.0039                40.2828

                     82                     83                     84
                      A                      A                      A
 Frequencies --   3119.3333              3121.6047              3130.1600
 Red. masses --      1.1007                 1.1019                 1.0994
 Frc consts  --      6.3099                 6.3260                 6.3464
 IR Inten    --     68.2844                49.7626                43.2688

                     85                     86                     87
                      A                      A                      A
 Frequencies --   3132.0066              3135.9497              3139.8560
 Red. masses --      1.0955                 1.0952                 1.1012
 Frc consts  --      6.3318                 6.3459                 6.3964
 IR Inten    --     35.8257                42.6206                43.4642

 - Thermochemistry -
 -------------------
 Temperature   298.150 Kelvin.  Pressure   1.00000 Atm.
 Atom     1 has atomic number  6 and mass  12.00000

 Molecular mass:   186.12559 amu.
 Principal axes and moments of inertia in atomic units:
                           1         2         3
     Eigenvalues --   977.584314338.454284444.71945
           X            0.99982  -0.01269   0.01409
           Y            0.01169   0.99753   0.06923
           Z           -0.01494  -0.06905   0.99750
 This molecule is an asymmetric top.
 Rotational symmetry number  1.
 Warning -- assumption of classical behavior for rotation
           may cause significant error
 Rotational temperatures (Kelvin)      0.08860     0.01996     0.01949
 Rotational constants (GHZ):           1.84612     0.41599     0.40604
 Zero-point vibrational energy     737779.1 (Joules/Mol)
                                  176.33344 (Kcal/Mol)
 Warning -- explicit consideration of  17 degrees of freedom as
           vibrations may cause significant error
 Vibrational temperatures:     76.60    93.22   151.51   216.18   280.24
          (Kelvin)            337.41   362.88   404.72   499.95   555.95
                              573.46   624.07   646.88   675.43   697.76
                              772.11   783.65   913.35  1036.52  1191.87
                             1194.35  1212.36  1265.15  1279.17  1294.15
                             1303.26  1339.57  1357.38  1409.21  1441.10
                             1465.67  1502.58  1524.67  1536.89  1547.86
                             1623.89  1655.90  1660.70  1678.22  1701.53
                             1718.11  1742.61  1749.29  1784.10  1803.52
                             1850.44  1874.68  1901.20  1916.59  1937.21
                             1949.37  1959.35  1983.19  1990.25  2001.97
                             2009.25  2018.48  2027.05  2037.84  2060.83
                             2069.52  2129.03  2130.64  2141.75  2153.99
                             2158.03  2162.13  2174.24  2180.34  4347.13
                             4350.16  4382.37  4399.34  4403.10  4410.27
                             4417.92  4419.70  4422.02  4438.80  4475.72
                             4481.29  4488.02  4491.29  4503.60  4506.26
                             4511.93  4517.55

 Zero-point correction=                           0.281005 (Hartree/Particle)
 Thermal correction to Energy=                    0.292605
 Thermal correction to Enthalpy=                  0.293549
 Thermal correction to Gibbs Free Energy=         0.243183
 Sum of electronic and zero-point Energies=           -617.219019
 Sum of electronic and thermal Energies=              -617.207419
 Sum of electronic and thermal Enthalpies=            -617.206475
 Sum of electronic and thermal Free Energies=         -617.256842

                     E (Thermal)             CV                S
                      KCal/Mol        Cal/Mol-Kelvin    Cal/Mol-Kelvin
 Total                  183.613             46.580            106.006
 Electronic               0.000              0.000              0.000
 Translational            0.889              2.981             41.570
 Rotational               0.889              2.981             31.311
 Vibrational            181.835             40.619             33.125
 Vibration     1          0.596              1.976              4.693
 Vibration     2          0.597              1.971              4.306
 Vibration     3          0.605              1.945              3.354
 Vibration     4          0.618              1.902              2.669
 Vibration     5          0.635              1.847              2.182
 Vibration     6          0.654              1.788              1.844
 Vibration     7          0.664              1.759              1.715
 Vibration     8          0.681              1.708              1.526
 Vibration     9          0.725              1.580              1.178
 Vibration    10          0.755              1.499              1.014
 Vibration    11          0.765              1.473              0.968
 Vibration    12          0.794              1.397              0.846
 Vibration    13          0.809              1.362              0.797
 Vibration    14          0.827              1.318              0.739
 Vibration    15          0.841              1.283              0.697
 Vibration    16          0.892              1.169              0.573
 Vibration    17          0.900              1.151              0.555

 Optimization completed.
    -- Stationary point found.
 Normal termination of Gaussian 16 at Sun Nov  4 22:46:05 2018.
