 Gaussian 16, Revision A.03,
 Gaussian 16:  ES64L-G16RevA.03 25-Dec-2016

 ----------------------------------------------------------------------
 #M062X/6-311++G(2d,2p) opt=ModRedundant freq=noraman SCRF=(Solvent=Wat
 er)
 ----------------------------------------------------------------------

 ----------------------------
 L_a1-e4_D_PHI.inp_extract_21
 ----------------------------
 Symbolic Z-matrix:
 Charge =  0 Multiplicity = 1

 SCF Done:  E(RM062X) =  -617.499124771     A.U. after   12 cycles
 SCF Done:  E(RM062X) =  -617.500638133     A.U. after   10 cycles
 SCF Done:  E(RM062X) =  -617.500753057     A.U. after    9 cycles
 SCF Done:  E(RM062X) =  -617.500767855     A.U. after    9 cycles
 SCF Done:  E(RM062X) =  -617.500769340     A.U. after    8 cycles
 SCF Done:  E(RM062X) =  -617.500769529     A.U. after    7 cycles
 Optimization completed.
    -- Stationary point found.
 Normal termination of Gaussian 16 at Sun Nov  4 21:53:44 2018.

 ----------------------------------------------------------------------
 #N Geom=AllCheck Guess=TCheck SCRF=Check GenChk RM062X/6-311++G(2d,2p)
  Freq
 ----------------------------------------------------------------------

 Structure from the checkpoint file:  "L_a1-e4_D_PHI.inp_extract_21.chk"
 ----------------------------
 L_a1-e4_D_PHI.inp_extract_21
 ----------------------------
 Charge =  0 Multiplicity = 1

                         Standard orientation:
 ---------------------------------------------------------------------
 Center     Atomic      Atomic             Coordinates (Angstroms)
 Number     Number       Type             X           Y           Z
 ---------------------------------------------------------------------
      1          6           0        2.585926    1.028202   -0.983175
      2          8           0        1.811143    1.356281    0.171655
      3          6           0        3.082718   -1.213903   -0.019790
      4          8           0       -3.247902   -1.211982   -0.230452
      5          6           0        1.199563    0.242602    0.775612
      6          6           0        2.224850   -0.808256    1.176907
      7          6           0       -3.165923    1.113711    0.465930
      8          8           0        0.260870   -0.336353   -0.108389
      9          6           0       -1.662644    1.147792    0.188523
     10          6           0       -3.832304    0.071439   -0.417656
     11          6           0       -1.090245   -0.257987    0.316471
     12          6           0       -1.874150   -1.218688   -0.565902
     13          6           0        3.689429    0.037862   -0.651164
     14          1           0        1.927489    0.617925   -1.753335
     15          1           0        2.988865    1.972514   -1.342019
     16          1           0        2.461535   -1.728369   -0.756066
     17          1           0        3.860860   -1.909634    0.291919
     18          1           0        0.686556    0.637660    1.652829
     19          1           0        2.857154   -0.379176    1.956975
     20          1           0        1.698106   -1.661737    1.603655
     21          1           0       -3.614170    2.090046    0.281738
     22          1           0       -3.347925    0.859382    1.512301
     23          1           0       -1.478764    1.493658   -0.832656
     24          1           0       -1.154050    1.835335    0.865097
     25          1           0       -4.888070   -0.037414   -0.179517
     26          1           0       -3.740710    0.358022   -1.472419
     27          1           0       -1.172345   -0.600111    1.354996
     28          1           0       -1.512939   -2.236442   -0.432373
     29          1           0       -1.737097   -0.930309   -1.615781
     30          1           0        4.240600   -0.204675   -1.560207
     31          1           0        4.388695    0.503106    0.047819
 ---------------------------------------------------------------------

 SCF Done:  E(RM062X) =  -617.500769529     A.U. after    1 cycles

 The electronic state is 1-A.
 Alpha  occ. eigenvalues --  -19.63231 -19.63158 -19.62950 -10.63590 -10.58986
 Alpha  occ. eigenvalues --  -10.58189 -10.58108 -10.57735 -10.53340 -10.53234
 Alpha  occ. eigenvalues --  -10.53008 -10.52970 -10.52850  -1.19958  -1.16754
 Alpha  occ. eigenvalues --   -1.13616  -0.90843  -0.89757  -0.87465  -0.84556
 Alpha  occ. eigenvalues --   -0.74908  -0.73676  -0.72826  -0.71318  -0.66106
 Alpha  occ. eigenvalues --   -0.63876  -0.60323  -0.58346  -0.57434  -0.54985
 Alpha  occ. eigenvalues --   -0.54740  -0.53356  -0.52316  -0.50582  -0.49973
 Alpha  occ. eigenvalues --   -0.48477  -0.47535  -0.46115  -0.45465  -0.44130
 Alpha  occ. eigenvalues --   -0.44031  -0.42841  -0.41276  -0.40394  -0.39742
 Alpha  occ. eigenvalues --   -0.38279  -0.37821  -0.37095  -0.34600  -0.32924
 Alpha  occ. eigenvalues --   -0.32231
 Alpha virt. eigenvalues --   -0.00054   0.00752   0.00764   0.01051   0.02164
 Alpha virt. eigenvalues --    0.02432   0.02630   0.03402   0.03523   0.04372
 Alpha virt. eigenvalues --    0.04586   0.04660   0.05591   0.05861   0.06827

 Mulliken charges:
               1
     1  C   -0.137650
     2  O   -0.287884
     3  C   -0.316240
     4  O   -0.342881
     5  C   -0.047870
     6  C   -0.384703
     7  C   -0.358437
     8  O   -0.285774
     9  C   -0.174111
    10  C   -0.210658
    11  C   -0.178470
    12  C   -0.255572
    13  C   -0.398192
    14  H    0.157830
    15  H    0.207178
    16  H    0.179606
    17  H    0.175043
    18  H    0.255421
    19  H    0.189622
    20  H    0.170144
    21  H    0.173614
    22  H    0.168120
    23  H    0.222087
    24  H    0.167907
    25  H    0.208482
    26  H    0.138590
    27  H    0.243336
    28  H    0.198978
    29  H    0.188207
    30  H    0.169882
    31  H    0.164396
 Sum of Mulliken charges =  -0.00000

 Dipole moment (field-independent basis, Debye):
    X=              0.7137    Y=              0.5584    Z=              0.3240  Tot=              0.9623
 Quadrupole moment (field-independent basis, Debye-Ang):
   XX=            -76.4845   YY=            -84.6425   ZZ=            -76.8199
   XY=             -9.8652   XZ=             -0.8126   YZ=             -1.5897

  Exact polarizability: 175.906  -2.029 155.836  -3.045  -1.250 153.642
 Approx polarizability: 147.229   0.265 141.498  -2.397  -0.355 142.948

 ******    1 imaginary frequencies (negative Signs) ******

                      1                      2                      3
                      A                      A                      A
 Frequencies --    -40.5592                54.1271                77.5582
 Red. masses --      4.2960                 3.5330                 3.4953
 Frc consts  --      0.0042                 0.0061                 0.0124
 IR Inten    --      2.0432                 1.8857                 1.1886

                      4                      5                      6
                      A                      A                      A
 Frequencies --    136.5768               187.1744               234.2718
 Red. masses --      3.1770                 3.0164                 2.9042
 Frc consts  --      0.0349                 0.0623                 0.0939
 IR Inten    --      2.8706                 1.8322                 5.1625

                      7                      8                      9
                      A                      A                      A
 Frequencies --    249.1464               262.1745               338.7885
 Red. masses --      1.9593                 2.9224                 2.6041
 Frc consts  --      0.0717                 0.1183                 0.1761
 IR Inten    --      3.9528                 0.9748                 4.1950

                     10                     11                     12
                      A                      A                      A
 Frequencies --    366.2828               410.3484               434.1634
 Red. masses --      2.0750                 2.2973                 3.4075
 Frc consts  --      0.1640                 0.2279                 0.3784
 IR Inten    --      9.4213                11.3313                 7.0458

                     13                     14                     15
                      A                      A                      A
 Frequencies --    456.4308               464.2137               492.7578
 Red. masses --      3.4487                 4.1570                 2.3224
 Frc consts  --      0.4233                 0.5278                 0.3322
 IR Inten    --      1.5648                 4.4408                 0.2863

                     16                     17                     18
                      A                      A                      A
 Frequencies --    529.6969               555.9747               593.7480
 Red. masses --      2.3256                 3.9175                 1.9908
 Frc consts  --      0.3845                 0.7135                 0.4135
 IR Inten    --      3.0770                24.2521                 6.0833

                     19                     20                     21
                      A                      A                      A
 Frequencies --    722.7126               827.2829               835.7776
 Red. masses --      2.8930                 2.2261                 1.5657
 Frc consts  --      0.8903                 0.8977                 0.6444
 IR Inten    --      9.9244                 1.4691                 1.1115

                     22                     23                     24
                      A                      A                      A
 Frequencies --    848.6921               877.6941               894.4648
 Red. masses --      3.0773                 1.4078                 2.3595
 Frc consts  --      1.3059                 0.6390                 1.1122
 IR Inten    --      3.3244                13.7323                12.7793

                     25                     26                     27
                      A                      A                      A
 Frequencies --    898.9928               902.8238               936.9872
 Red. masses --      2.3195                 2.5246                 1.6449
 Frc consts  --      1.1045                 1.2124                 0.8508
 IR Inten    --     25.6229                24.4329                24.6054

                     28                     29                     30
                      A                      A                      A
 Frequencies --    942.4536               981.5549               998.7465
 Red. masses --      2.1544                 2.4229                 1.4307
 Frc consts  --      1.1275                 1.3754                 0.8409
 IR Inten    --     36.8883                26.5732                21.6263

                     31                     32                     33
                      A                      A                      A
 Frequencies --   1023.2808              1046.2229              1056.3769
 Red. masses --      2.2202                 2.2752                 1.7146
 Frc consts  --      1.3697                 1.4673                 1.1273
 IR Inten    --     72.4545                70.5255                37.1288

                     34                     35                     36
                      A                      A                      A
 Frequencies --   1067.2334              1074.5232              1126.6090
 Red. masses --      1.4804                 2.3989                 4.1468
 Frc consts  --      0.9934                 1.6319                 3.1010
 IR Inten    --     73.2145                21.9923               360.3224

                     37                     38                     39
                      A                      A                      A
 Frequencies --   1148.7894              1152.5801              1166.7984
 Red. masses --      2.3774                 3.1003                 3.5722
 Frc consts  --      1.8485                 2.4266                 2.8654
 IR Inten    --     31.6271               117.8545               132.8090

                     40                     41                     42
                      A                      A                      A
 Frequencies --   1175.3538              1189.6216              1210.0343
 Red. masses --      2.5078                 2.5373                 1.4691
 Frc consts  --      2.0412                 2.1156                 1.2673
 IR Inten    --     17.5059                54.5404                33.4690

                     43                     44                     45
                      A                      A                      A
 Frequencies --   1211.0041              1237.5695              1248.0219
 Red. masses --      1.4211                 1.7454                 1.4841
 Frc consts  --      1.2279                 1.5750                 1.3619
 IR Inten    --     14.4057                71.4158                26.1986

                     46                     47                     48
                      A                      A                      A
 Frequencies --   1286.1812              1302.8463              1318.1492
 Red. masses --      1.2192                 1.1838                 1.1497
 Frc consts  --      1.1883                 1.1839                 1.1769
 IR Inten    --     16.1479                13.3566                 7.2428

                     49                     50                     51
                      A                      A                      A
 Frequencies --   1330.8709              1343.6792              1351.8219
 Red. masses --      1.2777                 1.2492                 1.2264
 Frc consts  --      1.3333                 1.3289                 1.3204
 IR Inten    --     10.1243                 3.0808                19.9206

                     52                     53                     54
                      A                      A                      A
 Frequencies --   1359.6483              1381.5388              1385.1218
 Red. masses --      1.3233                 1.4338                 1.5122
 Frc consts  --      1.4413                 1.6124                 1.7094
 IR Inten    --      5.1140                 8.1207                 3.8093

                     55                     56                     57
                      A                      A                      A
 Frequencies --   1390.1807              1397.9968              1400.6709
 Red. masses --      1.6433                 1.3336                 1.5357
 Frc consts  --      1.8712                 1.5357                 1.7751
 IR Inten    --      7.4349                 2.7685                35.2672

                     58                     59                     60
                      A                      A                      A
 Frequencies --   1409.2354              1417.6175              1428.9444
 Red. masses --      1.3723                 1.3547                 1.4157
 Frc consts  --      1.6057                 1.6040                 1.7031
 IR Inten    --     18.8556                19.3180                 2.0787

                     61                     62                     63
                      A                      A                      A
 Frequencies --   1448.2986              1476.2048              1480.6342
 Red. masses --      1.3413                 1.1051                 1.0937
 Frc consts  --      1.6576                 1.4189                 1.4127
 IR Inten    --      8.7685                 4.5258                 7.6825

                     64                     65                     66
                      A                      A                      A
 Frequencies --   1482.9822              1494.6508              1495.4469
 Red. masses --      1.0864                 1.1122                 1.1074
 Frc consts  --      1.4077                 1.4639                 1.4592
 IR Inten    --      8.1377                 5.7025                18.5889

                     67                     68                     69
                      A                      A                      A
 Frequencies --   1502.3916              1511.3046              1515.3442
 Red. masses --      1.0876                 1.0942                 1.1012
 Frc consts  --      1.4464                 1.4725                 1.4899
 IR Inten    --      0.5220                 4.2179                 8.9052

                     70                     71                     72
                      A                      A                      A
 Frequencies --   3017.0090              3021.4588              3029.2386
 Red. masses --      1.0721                 1.0706                 1.0797
 Frc consts  --      5.7497                 5.7587                 5.8372
 IR Inten    --     17.6255                77.1612                79.9838

                     73                     74                     75
                      A                      A                      A
 Frequencies --   3057.7282              3058.0751              3064.2674
 Red. masses --      1.0661                 1.0662                 1.0629
 Frc consts  --      5.8726                 5.8749                 5.8800
 IR Inten    --     74.6529                 2.7761                49.2457

                     76                     77                     78
                      A                      A                      A
 Frequencies --   3070.2049              3070.6965              3072.9618
 Red. masses --      1.0643                 1.0624                 1.0605
 Frc consts  --      5.9107                 5.9021                 5.9003
 IR Inten    --     22.3213                35.6180                34.7412

                     79                     80                     81
                      A                      A                      A
 Frequencies --   3098.0262              3111.5379              3113.4557
 Red. masses --      1.0872                 1.0991                 1.0977
 Frc consts  --      6.1482                 6.2694                 6.2693
 IR Inten    --     46.6416                53.9669                33.3802

                     82                     83                     84
                      A                      A                      A
 Frequencies --   3117.9301              3120.6883              3123.8440
 Red. masses --      1.1010                 1.1024                 1.1048
 Frc consts  --      6.3064                 6.3255                 6.3522
 IR Inten    --     53.5167                51.5225                55.0490

                     85                     86                     87
                      A                      A                      A
 Frequencies --   3134.1824              3135.8035              3136.4151
 Red. masses --      1.0943                 1.0997                 1.0956
 Frc consts  --      6.3335                 6.3712                 6.3499
 IR Inten    --     48.9770                51.5391                29.0228

 - Thermochemistry -
 -------------------
 Temperature   298.150 Kelvin.  Pressure   1.00000 Atm.
 Atom     1 has atomic number  6 and mass  12.00000

 Molecular mass:   186.12559 amu.
 Principal axes and moments of inertia in atomic units:
                           1         2         3
     Eigenvalues --   909.722224567.409924904.76919
           X            0.99986  -0.01635  -0.00212
           Y            0.01632   0.99973  -0.01660
           Z            0.00239   0.01656   0.99986
 This molecule is an asymmetric top.
 Rotational symmetry number  1.
 Warning -- assumption of classical behavior for rotation
           may cause significant error
 Rotational temperatures (Kelvin)      0.09521     0.01896     0.01766
 Rotational constants (GHZ):           1.98384     0.39513     0.36796
    1 imaginary frequencies ignored.
 Zero-point vibrational energy     736366.8 (Joules/Mol)
                                  175.99590 (Kcal/Mol)
 Warning -- explicit consideration of  17 degrees of freedom as
           vibrations may cause significant error
 Vibrational temperatures:     77.88   111.59   196.50   269.30   337.06
          (Kelvin)            358.47   377.21   487.44   527.00   590.40
                              624.66   656.70   667.90   708.97   762.12
                              799.92   854.27  1039.82  1190.28  1202.50
                             1221.08  1262.81  1286.94  1293.45  1298.96
                             1348.12  1355.98  1412.24  1436.97  1472.27
                             1505.28  1519.89  1535.51  1546.00  1620.94
                             1652.85  1658.31  1678.76  1691.07  1711.60
                             1740.97  1742.36  1780.59  1795.63  1850.53
                             1874.51  1896.52  1914.83  1933.25  1944.97
                             1956.23  1987.73  1992.88  2000.16  2011.41
                             2015.25  2027.58  2039.64  2055.93  2083.78
                             2123.93  2130.30  2133.68  2150.47  2151.61
                             2161.61  2174.43  2180.24  4340.80  4347.21
                             4358.40  4399.39  4399.89  4408.80  4417.34
                             4418.05  4421.31  4457.37  4476.81  4479.57
                             4486.01  4489.97  4494.51  4509.39  4511.72
                             4512.60

 Zero-point correction=                           0.280467 (Hartree/Particle)
 Thermal correction to Energy=                    0.291410
 Thermal correction to Enthalpy=                  0.292354
 Thermal correction to Gibbs Free Energy=         0.243488
 Sum of electronic and zero-point Energies=           -617.220302
 Sum of electronic and thermal Energies=              -617.209359
 Sum of electronic and thermal Enthalpies=            -617.208415
 Sum of electronic and thermal Free Energies=         -617.257282

                     E (Thermal)             CV                S
                      KCal/Mol        Cal/Mol-Kelvin    Cal/Mol-Kelvin
 Total                  182.863             44.780            102.848
 Electronic               0.000              0.000              0.000
 Translational            0.889              2.981             41.570
 Rotational               0.889              2.981             31.389
 Vibrational            181.085             38.819             29.890
 Vibration     1          0.596              1.976              4.661
 Vibration     2          0.599              1.964              3.952
 Vibration     3          0.614              1.917              2.851
 Vibration     4          0.632              1.857              2.256
 Vibration     5          0.654              1.788              1.846
 Vibration     6          0.662              1.764              1.737
 Vibration     7          0.669              1.742              1.647
 Vibration     8          0.719              1.598              1.218
 Vibration     9          0.739              1.542              1.095
 Vibration    10          0.775              1.448              0.925
 Vibration    11          0.795              1.396              0.845
 Vibration    12          0.815              1.347              0.777
 Vibration    13          0.822              1.329              0.754
 Vibration    14          0.848              1.266              0.676
 Vibration    15          0.885              1.184              0.588
 Vibration    16          0.911              1.127              0.532
 Vibration    17          0.951              1.045              0.461

 Optimization completed.
    -- Stationary point found.
 Normal termination of Gaussian 16 at Sun Nov  4 22:46:56 2018.
