 Gaussian 16, Revision A.03,
 Gaussian 16:  ES64L-G16RevA.03 25-Dec-2016

 ----------------------------------------------------------------------
 #M062X/6-311++G(2d,2p) opt=ModRedundant freq=noraman SCRF=(Solvent=Wat
 er)
 ----------------------------------------------------------------------

 ----------------------------
 L_a1-e4_D_PHI.inp_extract_17
 ----------------------------
 Symbolic Z-matrix:
 Charge =  0 Multiplicity = 1

 SCF Done:  E(RM062X) =  -617.498096927     A.U. after   12 cycles
 SCF Done:  E(RM062X) =  -617.499790860     A.U. after   10 cycles
 SCF Done:  E(RM062X) =  -617.500023175     A.U. after   10 cycles
 SCF Done:  E(RM062X) =  -617.500126341     A.U. after   10 cycles
 SCF Done:  E(RM062X) =  -617.500156028     A.U. after    9 cycles
 SCF Done:  E(RM062X) =  -617.500164534     A.U. after    8 cycles
 SCF Done:  E(RM062X) =  -617.500164480     A.U. after    7 cycles
 Optimization completed.
    -- Stationary point found.
 Normal termination of Gaussian 16 at Sun Nov  4 21:59:33 2018.

 ----------------------------------------------------------------------
 #N Geom=AllCheck Guess=TCheck SCRF=Check GenChk RM062X/6-311++G(2d,2p)
  Freq
 ----------------------------------------------------------------------

 Structure from the checkpoint file:  "L_a1-e4_D_PHI.inp_extract_17.chk"
 ----------------------------
 L_a1-e4_D_PHI.inp_extract_17
 ----------------------------
 Charge =  0 Multiplicity = 1

                         Standard orientation:
 ---------------------------------------------------------------------
 Center     Atomic      Atomic             Coordinates (Angstroms)
 Number     Number       Type             X           Y           Z
 ---------------------------------------------------------------------
      1          6           0        3.018850   -0.887948   -0.706918
      2          8           0        2.278259    0.130301   -1.388429
      3          6           0        2.441074    0.158347    1.484313
      4          8           0       -3.060206   -1.189617    0.628416
      5          6           0        1.212336    0.648399   -0.644699
      6          6           0        1.676124    1.214583    0.691342
      7          6           0       -3.105189    1.173305    0.083804
      8          8           0        0.275917   -0.405940   -0.493540
      9          6           0       -1.698419    1.081221   -0.511305
     10          6           0       -3.813145   -0.167317   -0.012114
     11          6           0       -0.955754   -0.085373    0.131026
     12          6           0       -1.793739   -1.354123    0.024468
     13          6           0        3.573572   -0.389774    0.616959
     14          1           0        2.374321   -1.754790   -0.545762
     15          1           0        3.814704   -1.171394   -1.391676
     16          1           0        1.764540   -0.654066    1.760431
     17          1           0        2.830820    0.585244    2.407493
     18          1           0        0.783524    1.432472   -1.270661
     19          1           0        2.328555    2.061803    0.470908
     20          1           0        0.823840    1.603244    1.248559
     21          1           0       -3.688638    1.934274   -0.434260
     22          1           0       -3.043551    1.464643    1.134518
     23          1           0       -1.756697    0.902799   -1.589211
     24          1           0       -1.167375    2.020917   -0.358489
     25          1           0       -4.780550   -0.142581    0.484560
     26          1           0       -3.968046   -0.439418   -1.063255
     27          1           0       -0.795805    0.127331    1.194573
     28          1           0       -1.294776   -2.176304    0.533765
     29          1           0       -1.908550   -1.613166   -1.035395
     30          1           0        4.094456   -1.207495    1.115804
     31          1           0        4.303206    0.400630    0.425266
 ---------------------------------------------------------------------

 SCF Done:  E(RM062X) =  -617.500164480     A.U. after    1 cycles

 The electronic state is 1-A.
 Alpha  occ. eigenvalues --  -19.63256 -19.63239 -19.63194 -10.63686 -10.59040
 Alpha  occ. eigenvalues --  -10.58189 -10.58126 -10.57809 -10.53546 -10.53445
 Alpha  occ. eigenvalues --  -10.53173 -10.53132 -10.52952  -1.20198  -1.16838
 Alpha  occ. eigenvalues --   -1.13617  -0.90510  -0.90153  -0.87545  -0.84794
 Alpha  occ. eigenvalues --   -0.75426  -0.73895  -0.73011  -0.70974  -0.66110
 Alpha  occ. eigenvalues --   -0.63646  -0.59957  -0.58306  -0.58037  -0.55840
 Alpha  occ. eigenvalues --   -0.54707  -0.53550  -0.51823  -0.51245  -0.49569
 Alpha  occ. eigenvalues --   -0.48719  -0.47068  -0.46263  -0.46115  -0.45534
 Alpha  occ. eigenvalues --   -0.43786  -0.42369  -0.41086  -0.40774  -0.39034
 Alpha  occ. eigenvalues --   -0.38490  -0.37934  -0.37563  -0.34659  -0.32666
 Alpha  occ. eigenvalues --   -0.32436
 Alpha virt. eigenvalues --   -0.00093   0.00770   0.00918   0.00986   0.02183
 Alpha virt. eigenvalues --    0.02463   0.02703   0.03528   0.03583   0.04441
 Alpha virt. eigenvalues --    0.04580   0.04730   0.05422   0.06164   0.07139

 Mulliken charges:
               1
     1  C   -0.230482
     2  O   -0.312288
     3  C   -0.270423
     4  O   -0.333597
     5  C   -0.107737
     6  C   -0.223207
     7  C   -0.401669
     8  O   -0.341936
     9  C   -0.215472
    10  C   -0.220944
    11  C   -0.190368
    12  C   -0.270933
    13  C   -0.386936
    14  H    0.170484
    15  H    0.214653
    16  H    0.169246
    17  H    0.179870
    18  H    0.280945
    19  H    0.212737
    20  H    0.197831
    21  H    0.179065
    22  H    0.169169
    23  H    0.239947
    24  H    0.151421
    25  H    0.209188
    26  H    0.144095
    27  H    0.257432
    28  H    0.206411
    29  H    0.186944
    30  H    0.168784
    31  H    0.167769
 Sum of Mulliken charges =  -0.00000

 Dipole moment (field-independent basis, Debye):
    X=             -0.0983    Y=              2.3155    Z=              1.2882  Tot=              2.6516
 Quadrupole moment (field-independent basis, Debye-Ang):
   XX=            -75.8826   YY=            -79.1614   ZZ=            -84.4939
   XY=             -7.6140   XZ=              9.0047   YZ=              1.5899

  Exact polarizability: 176.985  -5.220 156.311  -0.999   0.706 151.464
 Approx polarizability: 148.174  -2.632 142.686  -2.121  -0.631 141.586

                      1                      2                      3
                      A                      A                      A
 Frequencies --     40.6196                52.2929               105.6379
 Red. masses --      3.5776                 3.8948                 3.2164
 Frc consts  --      0.0035                 0.0063                 0.0211
 IR Inten    --      1.4252                 2.0179                 0.1289

                      4                      5                      6
                      A                      A                      A
 Frequencies --    145.3722               189.6692               234.7884
 Red. masses --      3.2889                 3.3350                 2.7189
 Frc consts  --      0.0410                 0.0707                 0.0883
 IR Inten    --      0.7813                 5.6103                 3.7907

                      7                      8                      9
                      A                      A                      A
 Frequencies --    250.6619               274.9818               346.7219
 Red. masses --      1.9444                 3.1366                 2.3189
 Frc consts  --      0.0720                 0.1397                 0.1642
 IR Inten    --      4.2700                 1.6354                 1.3723

                     10                     11                     12
                      A                      A                      A
 Frequencies --    384.2918               403.0389               435.3673
 Red. masses --      2.2933                 3.5495                 2.7754
 Frc consts  --      0.1995                 0.3397                 0.3100
 IR Inten    --     19.0858                20.2992                 1.3989

                     13                     14                     15
                      A                      A                      A
 Frequencies --    450.0204               469.6177               479.7456
 Red. masses --      3.4880                 3.2698                 2.3589
 Frc consts  --      0.4162                 0.4249                 0.3199
 IR Inten    --      1.9666                 5.8017                 1.3737

                     16                     17                     18
                      A                      A                      A
 Frequencies --    530.1090               542.8799               629.6219
 Red. masses --      2.8142                 2.0497                 2.4409
 Frc consts  --      0.4659                 0.3559                 0.5701
 IR Inten    --      0.3230                 2.2709                11.8672

                     19                     20                     21
                      A                      A                      A
 Frequencies --    723.1533               828.1188               831.9187
 Red. masses --      3.0549                 2.2325                 1.7567
 Frc consts  --      0.9412                 0.9020                 0.7163
 IR Inten    --      9.9094                 0.4722                 0.0707

                     22                     23                     24
                      A                      A                      A
 Frequencies --    842.9834               878.5458               890.5510
 Red. masses --      2.6396                 1.4304                 2.4092
 Frc consts  --      1.1052                 0.6505                 1.1258
 IR Inten    --      2.5998                15.8042                 4.9536

                     25                     26                     27
                      A                      A                      A
 Frequencies --    898.7110               906.7742               932.0613
 Red. masses --      2.3984                 2.2892                 1.6467
 Frc consts  --      1.1413                 1.1090                 0.8428
 IR Inten    --     19.1859                33.1829                22.7389

                     28                     29                     30
                      A                      A                      A
 Frequencies --    944.0913               980.7620              1001.5525
 Red. masses --      2.1602                 2.3830                 1.4926
 Frc consts  --      1.1344                 1.3505                 0.8822
 IR Inten    --     41.7392                20.3618                13.2925

                     31                     32                     33
                      A                      A                      A
 Frequencies --   1020.1290              1044.2275              1062.6117
 Red. masses --      2.2911                 2.2813                 1.6867
 Frc consts  --      1.4048                 1.4656                 1.1221
 IR Inten    --     55.9888                80.4664                10.3401

                     34                     35                     36
                      A                      A                      A
 Frequencies --   1066.9720              1076.8590              1131.6814
 Red. masses --      1.5816                 2.2366                 3.1560
 Frc consts  --      1.0609                 1.5281                 2.3814
 IR Inten    --     71.4199                 9.9142               165.1215

                     37                     38                     39
                      A                      A                      A
 Frequencies --   1153.5876              1155.9293              1162.2736
 Red. masses --      2.4891                 3.0103                 3.2335
 Frc consts  --      1.9516                 2.3699                 2.5736
 IR Inten    --    105.9549               202.6062                87.2211

                     40                     41                     42
                      A                      A                      A
 Frequencies --   1184.3026              1190.5822              1211.8063
 Red. masses --      2.3208                 2.4804                 1.5726
 Frc consts  --      1.9179                 2.0715                 1.3606
 IR Inten    --      8.0705                86.2152                26.5782

                     43                     44                     45
                      A                      A                      A
 Frequencies --   1214.6596              1241.2383              1254.7683
 Red. masses --      1.4665                 1.8857                 1.5172
 Frc consts  --      1.2748                 1.7118                 1.4074
 IR Inten    --     68.9793                47.7032                59.3418

                     46                     47                     48
                      A                      A                      A
 Frequencies --   1286.2636              1302.9683              1320.2513
 Red. masses --      1.2148                 1.1795                 1.1530
 Frc consts  --      1.1842                 1.1798                 1.1841
 IR Inten    --     25.1446                 3.6974                 6.8180

                     49                     50                     51
                      A                      A                      A
 Frequencies --   1332.4799              1344.6010              1355.0225
 Red. masses --      1.2703                 1.2089                 1.2767
 Frc consts  --      1.3289                 1.2878                 1.3811
 IR Inten    --      9.7855                 3.5667                11.0439

                     52                     53                     54
                      A                      A                      A
 Frequencies --   1360.3478              1380.3110              1384.3380
 Red. masses --      1.3204                 1.4666                 1.4796
 Frc consts  --      1.4397                 1.6463                 1.6706
 IR Inten    --      4.4857                15.5151                 9.7319

                     55                     56                     57
                      A                      A                      A
 Frequencies --   1390.5160              1401.8519              1404.9379
 Red. masses --      1.6036                 1.3074                 1.4227
 Frc consts  --      1.8268                 1.5138                 1.6545
 IR Inten    --     11.7657                22.5664                10.0695

                     58                     59                     60
                      A                      A                      A
 Frequencies --   1408.0610              1416.1770              1432.1346
 Red. masses --      1.3675                 1.4228                 1.4688
 Frc consts  --      1.5974                 1.6812                 1.7749
 IR Inten    --      3.8455                 3.8528                 3.0831

                     61                     62                     63
                      A                      A                      A
 Frequencies --   1444.3353              1480.3261              1481.6622
 Red. masses --      1.3531                 1.0978                 1.0918
 Frc consts  --      1.6631                 1.4173                 1.4121
 IR Inten    --     16.8707                 3.2214                 8.6989

                     64                     65                     66
                      A                      A                      A
 Frequencies --   1487.1633              1496.0455              1498.5131
 Red. masses --      1.0870                 1.1062                 1.1126
 Frc consts  --      1.4165                 1.4587                 1.4721
 IR Inten    --     10.0940                15.8728                17.0889

                     67                     68                     69
                      A                      A                      A
 Frequencies --   1501.6234              1510.9931              1514.8611
 Red. masses --      1.0877                 1.0932                 1.1017
 Frc consts  --      1.4451                 1.4706                 1.4895
 IR Inten    --      1.4585                 4.2816                 8.3824

                     70                     71                     72
                      A                      A                      A
 Frequencies --   3019.1808              3021.9808              3031.3044
 Red. masses --      1.0716                 1.0710                 1.0783
 Frc consts  --      5.7551                 5.7628                 5.8379
 IR Inten    --     21.4923                69.2183                83.4798

                     73                     74                     75
                      A                      A                      A
 Frequencies --   3056.1339              3061.1025              3066.8524
 Red. masses --      1.0650                 1.0680                 1.0638
 Frc consts  --      5.8605                 5.8962                 5.8954
 IR Inten    --     39.5220                23.9895                33.8756

                     76                     77                     78
                      A                      A                      A
 Frequencies --   3070.2469              3071.7602              3076.3258
 Red. masses --      1.0628                 1.0631                 1.0653
 Frc consts  --      5.9025                 5.9102                 5.9397
 IR Inten    --     39.5030                47.9387                16.8801

                     79                     80                     81
                      A                      A                      A
 Frequencies --   3090.1608              3114.5806              3115.3806
 Red. masses --      1.0843                 1.0973                 1.0972
 Frc consts  --      6.1007                 6.2717                 6.2744
 IR Inten    --     72.1879                54.1230                28.4625

                     82                     83                     84
                      A                      A                      A
 Frequencies --   3119.4008              3121.2677              3124.1861
 Red. masses --      1.0998                 1.1023                 1.1023
 Frc consts  --      6.3052                 6.3274                 6.3392
 IR Inten    --     61.6004                48.9994                46.1881

                     85                     86                     87
                      A                      A                      A
 Frequencies --   3133.6683              3136.7020              3139.1890
 Red. masses --      1.0951                 1.0952                 1.1012
 Frc consts  --      6.3358                 6.3490                 6.3936
 IR Inten    --     42.3614                40.6749                43.4400

 - Thermochemistry -
 -------------------
 Temperature   298.150 Kelvin.  Pressure   1.00000 Atm.
 Atom     1 has atomic number  6 and mass  12.00000

 Molecular mass:   186.12559 amu.
 Principal axes and moments of inertia in atomic units:
                           1         2         3
     Eigenvalues --   940.527144487.757514598.45007
           X            0.99984  -0.01247   0.01307
           Y            0.01141   0.99688   0.07815
           Z           -0.01400  -0.07799   0.99686
 This molecule is an asymmetric top.
 Rotational symmetry number  1.
 Warning -- assumption of classical behavior for rotation
           may cause significant error
 Rotational temperatures (Kelvin)      0.09209     0.01930     0.01884
 Rotational constants (GHZ):           1.91886     0.40215     0.39247
 Zero-point vibrational energy     737506.7 (Joules/Mol)
                                  176.26834 (Kcal/Mol)
 Warning -- explicit consideration of  17 degrees of freedom as
           vibrations may cause significant error
 Vibrational temperatures:     58.44    75.24   151.99   209.16   272.89
          (Kelvin)            337.81   360.65   395.64   498.86   552.91
                              579.88   626.40   647.48   675.68   690.25
                              762.71   781.08   905.89  1040.46  1191.48
                             1196.95  1212.87  1264.03  1281.30  1293.04
                             1304.65  1341.03  1358.34  1411.10  1441.01
                             1467.74  1502.41  1528.86  1535.13  1549.36
                             1628.24  1659.76  1663.12  1672.25  1703.95
                             1712.98  1743.52  1747.62  1785.86  1805.33
                             1850.65  1874.68  1899.55  1917.14  1934.58
                             1949.58  1957.24  1985.96  1991.75  2000.64
                             2016.95  2021.39  2025.89  2037.56  2060.52
                             2078.08  2129.86  2131.78  2139.70  2152.48
                             2156.03  2160.50  2173.98  2179.55  4343.93
                             4347.96  4361.37  4397.10  4404.24  4412.52
                             4417.40  4419.58  4426.15  4446.05  4481.19
                             4482.34  4488.12  4490.81  4495.01  4508.65
                             4513.01  4516.59

 Zero-point correction=                           0.280901 (Hartree/Particle)
 Thermal correction to Energy=                    0.292586
 Thermal correction to Enthalpy=                  0.293530
 Thermal correction to Gibbs Free Energy=         0.242612
 Sum of electronic and zero-point Energies=           -617.219263
 Sum of electronic and thermal Energies=              -617.207579
 Sum of electronic and thermal Enthalpies=            -617.206635
 Sum of electronic and thermal Free Energies=         -617.257553

                     E (Thermal)             CV                S
                      KCal/Mol        Cal/Mol-Kelvin    Cal/Mol-Kelvin
 Total                  183.600             46.627            107.167
 Electronic               0.000              0.000              0.000
 Translational            0.889              2.981             41.570
 Rotational               0.889              2.981             31.340
 Vibrational            181.823             40.665             34.257
 Vibration     1          0.594              1.981              5.229
 Vibration     2          0.596              1.977              4.729
 Vibration     3          0.605              1.945              3.348
 Vibration     4          0.617              1.908              2.732
 Vibration     5          0.633              1.854              2.231
 Vibration     6          0.655              1.788              1.842
 Vibration     7          0.663              1.762              1.726
 Vibration     8          0.677              1.720              1.565
 Vibration     9          0.725              1.582              1.181
 Vibration    10          0.753              1.504              1.022
 Vibration    11          0.768              1.464              0.952
 Vibration    12          0.796              1.393              0.841
 Vibration    13          0.809              1.361              0.796
 Vibration    14          0.827              1.317              0.739
 Vibration    15          0.836              1.295              0.711
 Vibration    16          0.885              1.183              0.587
 Vibration    17          0.898              1.155              0.559

 Optimization completed.
    -- Stationary point found.
 Normal termination of Gaussian 16 at Sun Nov  4 22:57:11 2018.
