 Gaussian 16, Revision A.03,
 Gaussian 16:  ES64L-G16RevA.03 25-Dec-2016

 ----------------------------------------------------------------------
 #M062X/6-311++G(2d,2p) opt=ModRedundant freq=noraman SCRF=(Solvent=Wat
 er)
 ----------------------------------------------------------------------

 ----------------------------
 L_a1-e4_D_PHI.inp_extract_14
 ----------------------------
 Symbolic Z-matrix:
 Charge =  0 Multiplicity = 1

 SCF Done:  E(RM062X) =  -617.493636823     A.U. after   12 cycles
 SCF Done:  E(RM062X) =  -617.494692170     A.U. after   11 cycles
 SCF Done:  E(RM062X) =  -617.495218245     A.U. after   10 cycles
 SCF Done:  E(RM062X) =  -617.495348658     A.U. after   10 cycles
 SCF Done:  E(RM062X) =  -617.495370652     A.U. after    9 cycles
 SCF Done:  E(RM062X) =  -617.495371977     A.U. after    8 cycles
 SCF Done:  E(RM062X) =  -617.495371548     A.U. after    7 cycles
 SCF Done:  E(RM062X) =  -617.495370924     A.U. after    7 cycles
 Optimization completed.
    -- Stationary point found.
 Normal termination of Gaussian 16 at Sun Nov  4 22:03:46 2018.

 ----------------------------------------------------------------------
 #N Geom=AllCheck Guess=TCheck SCRF=Check GenChk RM062X/6-311++G(2d,2p)
  Freq
 ----------------------------------------------------------------------

 Structure from the checkpoint file:  "L_a1-e4_D_PHI.inp_extract_14.chk"
 ----------------------------
 L_a1-e4_D_PHI.inp_extract_14
 ----------------------------
 Charge =  0 Multiplicity = 1

                         Standard orientation:
 ---------------------------------------------------------------------
 Center     Atomic      Atomic             Coordinates (Angstroms)
 Number     Number       Type             X           Y           Z
 ---------------------------------------------------------------------
      1          6           0        2.783583   -1.093440   -0.376121
      2          8           0        2.494940   -0.013241   -1.261528
      3          6           0        2.037441    0.260681    1.558037
      4          8           0       -2.698287   -1.367323    0.528228
      5          6           0        1.407533    0.783442   -0.866065
      6          6           0        1.619423    1.330370    0.545384
      7          6           0       -3.064615    1.032490    0.423781
      8          8           0        0.229858    0.017655   -1.072140
      9          6           0       -1.811030    1.189406   -0.437368
     10          6           0       -3.653764   -0.355855    0.231735
     11          6           0       -0.848943    0.042330   -0.153838
     12          6           0       -1.569592   -1.289447   -0.320473
     13          6           0        3.182921   -0.574175    0.991935
     14          1           0        1.907638   -1.744595   -0.298126
     15          1           0        3.587237   -1.652685   -0.849366
     16          1           0        1.204133   -0.405504    1.789154
     17          1           0        2.327720    0.740010    2.492448
     18          1           0        1.395110    1.608024   -1.579704
     19          1           0        2.427961    2.057982    0.452845
     20          1           0        0.740911    1.882741    0.876722
     21          1           0       -3.809352    1.784730    0.163598
     22          1           0       -2.813644    1.167640    1.478164
     23          1           0       -2.079486    1.149247   -1.496752
     24          1           0       -1.326029    2.149927   -0.257648
     25          1           0       -4.495572   -0.527781    0.898895
     26          1           0       -3.998302   -0.478684   -0.802359
     27          1           0       -0.500872    0.105970    0.876685
     28          1           0       -0.906602   -2.111405   -0.055444
     29          1           0       -1.872362   -1.404091   -1.368766
     30          1           0        3.419399   -1.410608    1.649828
     31          1           0        4.082283    0.037543    0.891305
 ---------------------------------------------------------------------

 SCF Done:  E(RM062X) =  -617.495370924     A.U. after    1 cycles

 The electronic state is 1-A.
 Alpha  occ. eigenvalues --  -19.63195 -19.63104 -19.63068 -10.63986 -10.58865
 Alpha  occ. eigenvalues --  -10.58130 -10.58102 -10.57818 -10.53641 -10.53434
 Alpha  occ. eigenvalues --  -10.53321 -10.53190 -10.52970  -1.19876  -1.16724
 Alpha  occ. eigenvalues --   -1.13491  -0.90463  -0.90398  -0.87586  -0.84857
 Alpha  occ. eigenvalues --   -0.75152  -0.74218  -0.73312  -0.70545  -0.65817
 Alpha  occ. eigenvalues --   -0.64579  -0.59482  -0.58434  -0.58162  -0.55946
 Alpha  occ. eigenvalues --   -0.54626  -0.53660  -0.51526  -0.51175  -0.49802
 Alpha  occ. eigenvalues --   -0.48587  -0.47881  -0.46130  -0.45686  -0.45429
 Alpha  occ. eigenvalues --   -0.43747  -0.41716  -0.41192  -0.40834  -0.39040
 Alpha  occ. eigenvalues --   -0.38462  -0.37943  -0.37246  -0.35274  -0.32956
 Alpha  occ. eigenvalues --   -0.31896
 Alpha virt. eigenvalues --   -0.00145   0.00767   0.00925   0.01020   0.02240
 Alpha virt. eigenvalues --    0.02548   0.02694   0.03357   0.03527   0.04681
 Alpha virt. eigenvalues --    0.04759   0.04921   0.05610   0.05834   0.07189

 Mulliken charges:
               1
     1  C   -0.234522
     2  O   -0.261878
     3  C   -0.285662
     4  O   -0.301770
     5  C   -0.097316
     6  C   -0.337712
     7  C   -0.405566
     8  O   -0.342743
     9  C   -0.099603
    10  C   -0.204430
    11  C   -0.338719
    12  C   -0.253469
    13  C   -0.319817
    14  H    0.137711
    15  H    0.220534
    16  H    0.155789
    17  H    0.191486
    18  H    0.261222
    19  H    0.229021
    20  H    0.178773
    21  H    0.181827
    22  H    0.160293
    23  H    0.214526
    24  H    0.147682
    25  H    0.203513
    26  H    0.147489
    27  H    0.314074
    28  H    0.212245
    29  H    0.191504
    30  H    0.164645
    31  H    0.170873
 Sum of Mulliken charges =  -0.00000

 Dipole moment (field-independent basis, Debye):
    X=             -0.5318    Y=              2.2093    Z=              2.3122  Tot=              3.2419
 Quadrupole moment (field-independent basis, Debye-Ang):
   XX=            -76.8296   YY=            -78.7845   ZZ=            -85.1765
   XY=             -6.5430   XZ=              8.3618   YZ=              1.3411

  Exact polarizability: 175.009  -3.722 157.650  -1.291   0.137 152.726
 Approx polarizability: 148.452  -1.454 142.465  -1.789  -1.032 142.197

 ******    1 imaginary frequencies (negative Signs) ******

                      1                      2                      3
                      A                      A                      A
 Frequencies --    -35.1883                47.7313                89.7004
 Red. masses --      4.2375                 3.5032                 3.3678
 Frc consts  --      0.0031                 0.0047                 0.0160
 IR Inten    --      1.1247                 1.5637                 1.1751

                      4                      5                      6
                      A                      A                      A
 Frequencies --    160.6861               191.7710               229.8074
 Red. masses --      3.4758                 2.4931                 3.0370
 Frc consts  --      0.0529                 0.0540                 0.0945
 IR Inten    --      2.1119                 3.4586                 3.2201

                      7                      8                      9
                      A                      A                      A
 Frequencies --    251.3847               290.6661               343.1032
 Red. masses --      1.9970                 3.4738                 2.6399
 Frc consts  --      0.0744                 0.1729                 0.1831
 IR Inten    --      6.1782                 5.7169                 2.6877

                     10                     11                     12
                      A                      A                      A
 Frequencies --    375.2686               390.5143               424.2799
 Red. masses --      2.5952                 2.4730                 2.4502
 Frc consts  --      0.2153                 0.2222                 0.2599
 IR Inten    --     22.0150                 3.0692                 4.7802

                     13                     14                     15
                      A                      A                      A
 Frequencies --    440.8737               463.7596               490.2684
 Red. masses --      3.8454                 3.4085                 2.4345
 Frc consts  --      0.4404                 0.4319                 0.3448
 IR Inten    --      3.3952                 2.9970                 0.2500

                     16                     17                     18
                      A                      A                      A
 Frequencies --    531.9783               545.8654               624.8612
 Red. masses --      2.8534                 1.9601                 2.5510
 Frc consts  --      0.4758                 0.3441                 0.5869
 IR Inten    --      0.9802                 1.8504                22.2765

                     19                     20                     21
                      A                      A                      A
 Frequencies --    724.4584               815.4704               830.9839
 Red. masses --      2.9527                 2.1969                 2.1119
 Frc consts  --      0.9131                 0.8607                 0.8592
 IR Inten    --      7.9616                 1.3595                 0.8875

                     22                     23                     24
                      A                      A                      A
 Frequencies --    839.3774               878.0197               888.8234
 Red. masses --      2.3586                 1.4014                 2.4002
 Frc consts  --      0.9791                 0.6365                 1.1172
 IR Inten    --      8.2869                13.2127                12.6260

                     25                     26                     27
                      A                      A                      A
 Frequencies --    899.4353               903.9199               930.5089
 Red. masses --      2.2706                 2.3980                 1.7819
 Frc consts  --      1.0823                 1.1544                 0.9090
 IR Inten    --     20.6180                38.2147                41.0610

                     28                     29                     30
                      A                      A                      A
 Frequencies --    942.6141               969.8630               997.5759
 Red. masses --      2.2331                 2.3030                 1.4913
 Frc consts  --      1.1690                 1.2763                 0.8744
 IR Inten    --     41.5501                45.3652                14.2127

                     31                     32                     33
                      A                      A                      A
 Frequencies --   1018.3162              1044.1722              1055.8824
 Red. masses --      2.2726                 2.3496                 1.7279
 Frc consts  --      1.3885                 1.5093                 1.1350
 IR Inten    --     25.7604                69.8746                21.5282

                     34                     35                     36
                      A                      A                      A
 Frequencies --   1068.7464              1072.5964              1115.8360
 Red. masses --      1.8598                 1.7523                 2.5824
 Frc consts  --      1.2516                 1.1878                 1.8944
 IR Inten    --     76.1050                25.7487               157.2067

                     37                     38                     39
                      A                      A                      A
 Frequencies --   1147.7862              1151.8786              1169.1247
 Red. masses --      2.7064                 3.0965                 2.5130
 Frc consts  --      2.1007                 2.4207                 2.0238
 IR Inten    --     57.0116               227.0987                19.4058

                     40                     41                     42
                      A                      A                      A
 Frequencies --   1180.4120              1198.2362              1211.3387
 Red. masses --      2.9117                 2.8497                 1.4508
 Frc consts  --      2.3904                 2.4107                 1.2543
 IR Inten    --     68.1072               126.9874                24.8657

                     43                     44                     45
                      A                      A                      A
 Frequencies --   1216.7698              1241.5756              1250.1782
 Red. masses --      1.5002                 1.7718                 1.5267
 Frc consts  --      1.3086                 1.6092                 1.4059
 IR Inten    --     90.8510                33.4766                40.0874

                     46                     47                     48
                      A                      A                      A
 Frequencies --   1292.7536              1303.9590              1318.3768
 Red. masses --      1.2312                 1.1901                 1.1652
 Frc consts  --      1.2123                 1.1922                 1.1932
 IR Inten    --     33.7564                12.2958                 8.9111

                     49                     50                     51
                      A                      A                      A
 Frequencies --   1330.2308              1346.2397              1355.2257
 Red. masses --      1.2799                 1.2769                 1.2141
 Frc consts  --      1.3343                 1.3635                 1.3138
 IR Inten    --      7.3831                 2.8146                 4.3152

                     52                     53                     54
                      A                      A                      A
 Frequencies --   1364.4976              1380.4485              1384.1780
 Red. masses --      1.3247                 1.3907                 1.4531
 Frc consts  --      1.4532                 1.5615                 1.6403
 IR Inten    --      4.8854                 5.7753                 8.6041

                     55                     56                     57
                      A                      A                      A
 Frequencies --   1389.9104              1395.6918              1401.1049
 Red. masses --      1.6257                 1.3294                 1.3556
 Frc consts  --      1.8504                 1.5257                 1.5679
 IR Inten    --     11.0889                12.7454                 6.6771

                     58                     59                     60
                      A                      A                      A
 Frequencies --   1411.2662              1416.3261              1431.6087
 Red. masses --      1.3760                 1.4010                 1.4115
 Frc consts  --      1.6147                 1.6558                 1.7044
 IR Inten    --     10.3177                 8.2477                14.0694

                     61                     62                     63
                      A                      A                      A
 Frequencies --   1436.1710              1479.5875              1480.4403
 Red. masses --      1.4095                 1.0990                 1.0936
 Frc consts  --      1.7129                 1.4175                 1.4122
 IR Inten    --      9.2679                 4.1759                 8.2574

                     64                     65                     66
                      A                      A                      A
 Frequencies --   1489.5850              1496.3115              1499.9826
 Red. masses --      1.0841                 1.1025                 1.1024
 Frc consts  --      1.4173                 1.4544                 1.4614
 IR Inten    --      8.7900                16.9976                14.8073

                     67                     68                     69
                      A                      A                      A
 Frequencies --   1501.7663              1512.8537              1513.8296
 Red. masses --      1.0941                 1.0946                 1.1018
 Frc consts  --      1.4538                 1.4760                 1.4876
 IR Inten    --      3.7346                 6.5422                 7.3817

                     70                     71                     72
                      A                      A                      A
 Frequencies --   3020.1890              3022.3231              3050.9640
 Red. masses --      1.0691                 1.0694                 1.0688
 Frc consts  --      5.7459                 5.7554                 5.8615
 IR Inten    --     29.4875               105.4114                51.1673

                     73                     74                     75
                      A                      A                      A
 Frequencies --   3057.2150              3066.9557              3068.8263
 Red. masses --      1.0635                 1.0642                 1.0624
 Frc consts  --      5.8567                 5.8976                 5.8952
 IR Inten    --     25.3335                25.5035                34.9959

                     76                     77                     78
                      A                      A                      A
 Frequencies --   3071.2754              3078.0581              3090.3589
 Red. masses --      1.0633                 1.0690                 1.0815
 Frc consts  --      5.9094                 5.9674                 6.0857
 IR Inten    --     30.5471                 2.0639               100.6813

                     79                     80                     81
                      A                      A                      A
 Frequencies --   3104.8910              3113.3639              3116.2906
 Red. masses --      1.0937                 1.0960                 1.0953
 Frc consts  --      6.2123                 6.2591                 6.2670
 IR Inten    --     18.7718                65.7728                40.5218

                     82                     83                     84
                      A                      A                      A
 Frequencies --   3119.4050              3121.4615              3128.1893
 Red. masses --      1.1022                 1.0989                 1.0979
 Frc consts  --      6.3190                 6.3085                 6.3297
 IR Inten    --     62.0222                34.1993                72.0410

                     85                     86                     87
                      A                      A                      A
 Frequencies --   3132.1031              3133.9596              3137.5196
 Red. masses --      1.0953                 1.0955                 1.0975
 Frc consts  --      6.3307                 6.3394                 6.3657
 IR Inten    --      8.6056                61.6558                44.5033

 - Thermochemistry -
 -------------------
 Temperature   298.150 Kelvin.  Pressure   1.00000 Atm.
 Atom     1 has atomic number  6 and mass  12.00000

 Molecular mass:   186.12559 amu.
 Principal axes and moments of inertia in atomic units:
                           1         2         3
     Eigenvalues --  1075.309474118.551134225.21974
           X            0.99981  -0.01357   0.01374
           Y            0.01238   0.99647   0.08305
           Z           -0.01482  -0.08287   0.99645
 This molecule is an asymmetric top.
 Rotational symmetry number  1.
 Warning -- assumption of classical behavior for rotation
           may cause significant error
 Rotational temperatures (Kelvin)      0.08055     0.02103     0.02050
 Rotational constants (GHZ):           1.67835     0.43820     0.42714
    1 imaginary frequencies ignored.
 Zero-point vibrational energy     737031.9 (Joules/Mol)
                                  176.15486 (Kcal/Mol)
 Warning -- explicit consideration of  16 degrees of freedom as
           vibrations may cause significant error
 Vibrational temperatures:     68.67   129.06   231.19   275.92   330.64
          (Kelvin)            361.69   418.20   493.65   539.93   561.86
                              610.44   634.32   667.25   705.39   765.40
                              785.38   899.04  1042.33  1173.28  1195.60
                             1207.68  1263.27  1278.82  1294.09  1300.54
                             1338.79  1356.21  1395.42  1435.29  1465.13
                             1502.33  1519.18  1537.69  1543.23  1605.44
                             1651.41  1657.30  1682.11  1698.35  1723.99
                             1742.85  1750.66  1786.35  1798.73  1859.98
                             1876.11  1896.85  1913.91  1936.94  1949.87
                             1963.21  1986.16  1991.52  1999.77  2008.09
                             2015.88  2030.50  2037.78  2059.77  2066.33
                             2128.80  2130.02  2143.18  2152.86  2158.14
                             2160.71  2176.66  2178.06  4345.38  4348.45
                             4389.66  4398.65  4412.67  4415.36  4418.88
                             4428.64  4446.34  4467.25  4479.44  4483.65
                             4488.13  4491.09  4500.77  4506.40  4509.07
                             4514.19

 Zero-point correction=                           0.280721 (Hartree/Particle)
 Thermal correction to Energy=                    0.291596
 Thermal correction to Enthalpy=                  0.292541
 Thermal correction to Gibbs Free Energy=         0.243931
 Sum of electronic and zero-point Energies=           -617.214650
 Sum of electronic and thermal Energies=              -617.203775
 Sum of electronic and thermal Enthalpies=            -617.202830
 Sum of electronic and thermal Free Energies=         -617.251440

                     E (Thermal)             CV                S
                      KCal/Mol        Cal/Mol-Kelvin    Cal/Mol-Kelvin
 Total                  182.979             44.781            102.307
 Electronic               0.000              0.000              0.000
 Translational            0.889              2.981             41.570
 Rotational               0.889              2.981             31.304
 Vibrational            181.202             38.819             29.433
 Vibration     1          0.595              1.978              4.909
 Vibration     2          0.602              1.956              3.667
 Vibration     3          0.622              1.891              2.542
 Vibration     4          0.634              1.851              2.211
 Vibration     5          0.652              1.795              1.880
 Vibration     6          0.663              1.760              1.721
 Vibration     7          0.687              1.691              1.470
 Vibration     8          0.722              1.589              1.198
 Vibration     9          0.746              1.523              1.058
 Vibration    10          0.758              1.490              0.998
 Vibration    11          0.786              1.417              0.878
 Vibration    12          0.801              1.381              0.824
 Vibration    13          0.821              1.330              0.755
 Vibration    14          0.846              1.272              0.683
 Vibration    15          0.887              1.179              0.583
 Vibration    16          0.901              1.149              0.553

 Optimization completed.
    -- Stationary point found.
 Normal termination of Gaussian 16 at Sun Nov  4 22:56:05 2018.
