 Gaussian 16, Revision A.03,
 Gaussian 16:  ES64L-G16RevA.03 25-Dec-2016

 ----------------------------------------------------------------------
 #M062X/6-311++G(2d,2p) opt=ModRedundant freq=noraman SCRF=(Solvent=Wat
 er)
 ----------------------------------------------------------------------

 ----------------------------
 L_a1-e4_D_PHI.inp_extract_15
 ----------------------------
 Symbolic Z-matrix:
 Charge =  0 Multiplicity = 1

 SCF Done:  E(RM062X) =  -617.496081165     A.U. after   12 cycles
 SCF Done:  E(RM062X) =  -617.497552657     A.U. after   11 cycles
 SCF Done:  E(RM062X) =  -617.497861145     A.U. after   10 cycles
 SCF Done:  E(RM062X) =  -617.497972158     A.U. after   10 cycles
 SCF Done:  E(RM062X) =  -617.497986740     A.U. after    9 cycles
 SCF Done:  E(RM062X) =  -617.497987768     A.U. after    7 cycles
 Optimization completed.
    -- Stationary point found.
 Normal termination of Gaussian 16 at Sun Nov  4 21:56:05 2018.

 ----------------------------------------------------------------------
 #N Geom=AllCheck Guess=TCheck SCRF=Check GenChk RM062X/6-311++G(2d,2p)
  Freq
 ----------------------------------------------------------------------

 Structure from the checkpoint file:  "L_a1-e4_D_PHI.inp_extract_15.chk"
 ----------------------------
 L_a1-e4_D_PHI.inp_extract_15
 ----------------------------
 Charge =  0 Multiplicity = 1

                         Standard orientation:
 ---------------------------------------------------------------------
 Center     Atomic      Atomic             Coordinates (Angstroms)
 Number     Number       Type             X           Y           Z
 ---------------------------------------------------------------------
      1          6           0        2.924438   -1.000733   -0.449936
      2          8           0        2.475117    0.058711   -1.296048
      3          6           0        2.088174    0.227106    1.538212
      4          8           0       -2.829348   -1.298000    0.583918
      5          6           0        1.335677    0.729506   -0.827194
      6          6           0        1.583013    1.295893    0.568932
      7          6           0       -3.053856    1.104519    0.302784
      8          8           0        0.259343   -0.192883   -0.919036
      9          6           0       -1.748260    1.137551   -0.492459
     10          6           0       -3.709232   -0.260479    0.167880
     11          6           0       -0.869578   -0.037242   -0.078356
     12          6           0       -1.655107   -1.336399   -0.202847
     13          6           0        3.293936   -0.483465    0.928075
     14          1           0        2.142625   -1.760660   -0.374066
     15          1           0        3.780675   -1.434659   -0.960989
     16          1           0        1.305536   -0.509462    1.734482
     17          1           0        2.345534    0.684004    2.493072
     18          1           0        1.167487    1.539695   -1.539282
     19          1           0        2.351055    2.061926    0.446099
     20          1           0        0.694941    1.801166    0.945192
     21          1           0       -3.739505    1.875549   -0.048566
     22          1           0       -2.852855    1.298143    1.358698
     23          1           0       -1.959836    1.039825   -1.561070
     24          1           0       -1.226219    2.084152   -0.346391
     25          1           0       -4.594002   -0.341650    0.795372
     26          1           0       -4.003940   -0.435148   -0.874061
     27          1           0       -0.574183    0.074379    0.967092
     28          1           0       -1.054966   -2.173410    0.149802
     29          1           0       -1.908078   -1.502420   -1.257336
     30          1           0        3.619376   -1.315077    1.553466
     31          1           0        4.130226    0.213488    0.837259
 ---------------------------------------------------------------------

 SCF Done:  E(RM062X) =  -617.497987768     A.U. after    1 cycles

 The electronic state is 1-A.
 Alpha  occ. eigenvalues --  -19.63222 -19.63186 -19.63149 -10.63931 -10.58906
 Alpha  occ. eigenvalues --  -10.58170 -10.58116 -10.57779 -10.53445 -10.53368
 Alpha  occ. eigenvalues --  -10.53349 -10.53294 -10.52957  -1.20041  -1.16766
 Alpha  occ. eigenvalues --   -1.13542  -0.90399  -0.90378  -0.87578  -0.84886
 Alpha  occ. eigenvalues --   -0.75215  -0.74173  -0.73117  -0.70674  -0.65897
 Alpha  occ. eigenvalues --   -0.64337  -0.59538  -0.58373  -0.58273  -0.56033
 Alpha  occ. eigenvalues --   -0.54667  -0.53644  -0.51470  -0.51217  -0.49635
 Alpha  occ. eigenvalues --   -0.48518  -0.47820  -0.46217  -0.45861  -0.45481
 Alpha  occ. eigenvalues --   -0.43761  -0.42007  -0.41049  -0.40879  -0.38973
 Alpha  occ. eigenvalues --   -0.38645  -0.37800  -0.37395  -0.35126  -0.32814
 Alpha  occ. eigenvalues --   -0.32103
 Alpha virt. eigenvalues --   -0.00122   0.00785   0.00927   0.01003   0.02221
 Alpha virt. eigenvalues --    0.02529   0.02713   0.03430   0.03521   0.04573
 Alpha virt. eigenvalues --    0.04735   0.04853   0.05585   0.05952   0.07227

 Mulliken charges:
               1
     1  C   -0.241530
     2  O   -0.279841
     3  C   -0.256363
     4  O   -0.310712
     5  C   -0.124884
     6  C   -0.285724
     7  C   -0.394400
     8  O   -0.349014
     9  C   -0.147701
    10  C   -0.207689
    11  C   -0.292642
    12  C   -0.250646
    13  C   -0.355686
    14  H    0.159709
    15  H    0.216054
    16  H    0.158257
    17  H    0.190087
    18  H    0.271808
    19  H    0.226063
    20  H    0.188237
    21  H    0.180648
    22  H    0.162321
    23  H    0.220475
    24  H    0.148139
    25  H    0.205105
    26  H    0.146785
    27  H    0.288435
    28  H    0.206196
    29  H    0.191501
    30  H    0.167103
    31  H    0.169906
 Sum of Mulliken charges =  -0.00000

 Dipole moment (field-independent basis, Debye):
    X=             -0.4761    Y=              2.2857    Z=              1.9527  Tot=              3.0437
 Quadrupole moment (field-independent basis, Debye-Ang):
   XX=            -76.9064   YY=            -78.8917   ZZ=            -84.9662
   XY=             -7.1253   XZ=              8.9747   YZ=              1.2226

  Exact polarizability: 175.532  -4.333 157.229  -1.135   0.170 152.159
 Approx polarizability: 148.253  -1.843 142.689  -1.866  -0.859 141.978

                      1                      2                      3
                      A                      A                      A
 Frequencies --     38.0741                60.2557                93.2465
 Red. masses --      4.3856                 3.3256                 3.3071
 Frc consts  --      0.0037                 0.0071                 0.0169
 IR Inten    --      0.9393                 2.3472                 0.8379

                      4                      5                      6
                      A                      A                      A
 Frequencies --    159.6978               191.7283               230.2708
 Red. masses --      3.5257                 2.5973                 3.0724
 Frc consts  --      0.0530                 0.0563                 0.0960
 IR Inten    --      0.9325                 4.2995                 3.5947

                      7                      8                      9
                      A                      A                      A
 Frequencies --    254.1323               283.7733               346.0051
 Red. masses --      1.9711                 3.2930                 2.4967
 Frc consts  --      0.0750                 0.1562                 0.1761
 IR Inten    --      6.0686                 3.1438                 1.3184

                     10                     11                     12
                      A                      A                      A
 Frequencies --    381.7799               395.4354               429.6547
 Red. masses --      2.5746                 2.7530                 2.5274
 Frc consts  --      0.2211                 0.2536                 0.2749
 IR Inten    --     30.3330                 3.8826                 2.1317

                     13                     14                     15
                      A                      A                      A
 Frequencies --    443.7270               466.9854               488.1658
 Red. masses --      3.7353                 3.3074                 2.4022
 Frc consts  --      0.4333                 0.4250                 0.3373
 IR Inten    --      2.8035                 4.1486                 0.5746

                     16                     17                     18
                      A                      A                      A
 Frequencies --    536.3417               545.6685               634.4067
 Red. masses --      2.7194                 1.9696                 2.5908
 Frc consts  --      0.4609                 0.3455                 0.6144
 IR Inten    --      1.0156                 1.8317                17.0724

                     19                     20                     21
                      A                      A                      A
 Frequencies --    720.4640               823.5378               830.5759
 Red. masses --      2.9975                 2.0979                 2.1770
 Frc consts  --      0.9167                 0.8383                 0.8849
 IR Inten    --      8.3540                 0.4659                 0.6031

                     22                     23                     24
                      A                      A                      A
 Frequencies --    841.3171               878.0907               889.2435
 Red. masses --      2.3346                 1.4129                 2.3846
 Frc consts  --      0.9736                 0.6419                 1.1110
 IR Inten    --      5.4330                15.4124                 9.4192

                     25                     26                     27
                      A                      A                      A
 Frequencies --    897.7352               903.7669               931.0158
 Red. masses --      2.2757                 2.4152                 1.7121
 Frc consts  --      1.0806                 1.1623                 0.8744
 IR Inten    --      7.0679                50.5021                33.9879

                     28                     29                     30
                      A                      A                      A
 Frequencies --    942.7869               975.0527               998.7529
 Red. masses --      2.2176                 2.3605                 1.4772
 Frc consts  --      1.1613                 1.3222                 0.8682
 IR Inten    --     42.1664                33.9194                19.7682

                     31                     32                     33
                      A                      A                      A
 Frequencies --   1018.2591              1043.5101              1057.0405
 Red. masses --      2.2573                 2.2815                 1.7009
 Frc consts  --      1.3790                 1.4637                 1.1197
 IR Inten    --     35.6277                70.0869                18.9638

                     34                     35                     36
                      A                      A                      A
 Frequencies --   1067.8032              1073.7449              1122.8657
 Red. masses --      1.7671                 1.8416                 2.7010
 Frc consts  --      1.1871                 1.2510                 2.0064
 IR Inten    --     69.1278                12.5050               138.0172

                     37                     38                     39
                      A                      A                      A
 Frequencies --   1148.7672              1151.8605              1169.8335
 Red. masses --      2.6808                 3.1675                 2.6775
 Frc consts  --      2.0844                 2.4761                 2.1589
 IR Inten    --     31.2462               263.7590                67.0907

                     40                     41                     42
                      A                      A                      A
 Frequencies --   1180.6542              1197.1270              1209.4085
 Red. masses --      2.6435                 3.0694                 1.4485
 Frc consts  --      2.1711                 2.5917                 1.2483
 IR Inten    --     37.3351               125.2812                17.3520

                     43                     44                     45
                      A                      A                      A
 Frequencies --   1215.7047              1239.6112              1251.2731
 Red. masses --      1.4765                 1.7995                 1.5412
 Frc consts  --      1.2857                 1.6292                 1.4217
 IR Inten    --     89.5803                29.2525                44.8526

                     46                     47                     48
                      A                      A                      A
 Frequencies --   1287.5255              1301.8374              1319.1306
 Red. masses --      1.2230                 1.1873                 1.1613
 Frc consts  --      1.1945                 1.1855                 1.1907
 IR Inten    --     24.7643                 7.7322                 7.4738

                     49                     50                     51
                      A                      A                      A
 Frequencies --   1330.4956              1345.5268              1354.9369
 Red. masses --      1.2711                 1.2788                 1.2243
 Frc consts  --      1.3257                 1.3641                 1.3243
 IR Inten    --      7.6508                 3.1589                 8.6677

                     52                     53                     54
                      A                      A                      A
 Frequencies --   1363.3109              1377.9811              1383.8882
 Red. masses --      1.3116                 1.3648                 1.5010
 Frc consts  --      1.4363                 1.5268                 1.6936
 IR Inten    --      4.6317                12.1140                12.1254

                     55                     56                     57
                      A                      A                      A
 Frequencies --   1390.3225              1394.0368              1401.7431
 Red. masses --      1.5736                 1.2991                 1.4249
 Frc consts  --      1.7922                 1.4874                 1.6495
 IR Inten    --      7.2110                 9.3276                12.5336

                     58                     59                     60
                      A                      A                      A
 Frequencies --   1410.1923              1415.2958              1430.8855
 Red. masses --      1.3939                 1.4064                 1.4085
 Frc consts  --      1.6332                 1.6598                 1.6991
 IR Inten    --      8.9017                 6.8389                14.6191

                     61                     62                     63
                      A                      A                      A
 Frequencies --   1435.8310              1480.1170              1482.1923
 Red. masses --      1.4551                 1.0984                 1.0931
 Frc consts  --      1.7674                 1.4177                 1.4149
 IR Inten    --      9.3434                 3.7562                 8.5694

                     64                     65                     66
                      A                      A                      A
 Frequencies --   1489.2800              1496.7093              1499.1482
 Red. masses --      1.0871                 1.1085                 1.1034
 Frc consts  --      1.4206                 1.4631                 1.4611
 IR Inten    --      7.2774                13.7831                24.4720

                     67                     68                     69
                      A                      A                      A
 Frequencies --   1501.4614              1510.2310              1514.3161
 Red. masses --      1.0873                 1.0942                 1.1019
 Frc consts  --      1.4442                 1.4704                 1.4887
 IR Inten    --      0.9958                 4.3887                 7.8007

                     70                     71                     72
                      A                      A                      A
 Frequencies --   3020.5089              3022.4931              3056.8979
 Red. masses --      1.0698                 1.0689                 1.0645
 Frc consts  --      5.7505                 5.7533                 5.8606
 IR Inten    --     37.6649                94.5431                18.3011

                     73                     74                     75
                      A                      A                      A
 Frequencies --   3060.9506              3065.4136              3068.5280
 Red. masses --      1.0688                 1.0661                 1.0620
 Frc consts  --      5.8999                 5.9023                 5.8918
 IR Inten    --     37.5838                18.0952                50.7350

                     76                     77                     78
                      A                      A                      A
 Frequencies --   3069.7422              3073.2566              3082.0465
 Red. masses --      1.0629                 1.0789                 1.0753
 Frc consts  --      5.9013                 6.0036                 6.0180
 IR Inten    --     26.8597                25.3987               104.8275

                     79                     80                     81
                      A                      A                      A
 Frequencies --   3086.2702              3109.5333              3115.4779
 Red. masses --      1.0767                 1.0997                 1.0975
 Frc consts  --      6.0426                 6.2652                 6.2761
 IR Inten    --     31.4969                51.9202                35.2428

                     82                     83                     84
                      A                      A                      A
 Frequencies --   3120.1848              3121.0142              3128.3169
 Red. masses --      1.1020                 1.1018                 1.0963
 Frc consts  --      6.3211                 6.3235                 6.3211
 IR Inten    --     70.0970                52.1161                44.3830

                     85                     86                     87
                      A                      A                      A
 Frequencies --   3132.6247              3135.6315              3137.9701
 Red. masses --      1.0979                 1.0949                 1.0999
 Frc consts  --      6.3477                 6.3427                 6.3814
 IR Inten    --     33.7553                47.6134                41.7893

 - Thermochemistry -
 -------------------
 Temperature   298.150 Kelvin.  Pressure   1.00000 Atm.
 Atom     1 has atomic number  6 and mass  12.00000

 Molecular mass:   186.12559 amu.
 Principal axes and moments of inertia in atomic units:
                           1         2         3
     Eigenvalues --  1023.604484224.563144327.36226
           X            0.99981  -0.01345   0.01401
           Y            0.01233   0.99697   0.07680
           Z           -0.01500  -0.07661   0.99695
 This molecule is an asymmetric top.
 Rotational symmetry number  1.
 Warning -- assumption of classical behavior for rotation
           may cause significant error
 Rotational temperatures (Kelvin)      0.08462     0.02050     0.02002
 Rotational constants (GHZ):           1.76312     0.42720     0.41705
 Zero-point vibrational energy     737392.6 (Joules/Mol)
                                  176.24105 (Kcal/Mol)
 Warning -- explicit consideration of  17 degrees of freedom as
           vibrations may cause significant error
 Vibrational temperatures:     54.78    86.69   134.16   229.77   275.85
          (Kelvin)            331.31   365.64   408.29   497.82   549.30
                              568.94   618.18   638.42   671.89   702.36
                              771.68   785.10   912.77  1036.59  1184.89
                             1195.01  1210.47  1263.38  1279.42  1291.64
                             1300.32  1339.52  1356.46  1402.88  1436.98
                             1465.05  1501.38  1520.85  1536.33  1544.88
                             1615.55  1652.82  1657.27  1683.13  1698.70
                             1722.40  1740.07  1749.13  1783.52  1800.30
                             1852.46  1873.05  1897.93  1914.29  1935.91
                             1949.45  1961.50  1982.61  1991.11  2000.36
                             2005.71  2016.80  2028.95  2036.29  2058.73
                             2065.84  2129.56  2132.54  2142.74  2153.43
                             2156.94  2160.27  2172.89  2178.76  4345.84
                             4348.69  4398.19  4404.03  4410.45  4414.93
                             4416.67  4421.73  4434.38  4440.45  4473.92
                             4482.48  4489.25  4490.44  4500.95  4507.15
                             4511.47  4514.84

 Zero-point correction=                           0.280858 (Hartree/Particle)
 Thermal correction to Energy=                    0.292534
 Thermal correction to Enthalpy=                  0.293479
 Thermal correction to Gibbs Free Energy=         0.242620
 Sum of electronic and zero-point Energies=           -617.217130
 Sum of electronic and thermal Energies=              -617.205453
 Sum of electronic and thermal Enthalpies=            -617.204509
 Sum of electronic and thermal Free Energies=         -617.255368

                     E (Thermal)             CV                S
                      KCal/Mol        Cal/Mol-Kelvin    Cal/Mol-Kelvin
 Total                  183.568             46.671            107.041
 Electronic               0.000              0.000              0.000
 Translational            0.889              2.981             41.570
 Rotational               0.889              2.981             31.304
 Vibrational            181.791             40.710             34.167
 Vibration     1          0.594              1.982              5.357
 Vibration     2          0.597              1.973              4.449
 Vibration     3          0.602              1.954              3.591
 Vibration     4          0.622              1.892              2.553
 Vibration     5          0.634              1.851              2.211
 Vibration     6          0.652              1.795              1.877
 Vibration     7          0.665              1.756              1.702
 Vibration     8          0.682              1.704              1.511
 Vibration     9          0.724              1.583              1.184
 Vibration    10          0.751              1.509              1.032
 Vibration    11          0.762              1.480              0.980
 Vibration    12          0.791              1.406              0.860
 Vibration    13          0.803              1.375              0.815
 Vibration    14          0.824              1.323              0.746
 Vibration    15          0.844              1.276              0.688
 Vibration    16          0.891              1.170              0.573
 Vibration    17          0.901              1.149              0.553

 Optimization completed.
    -- Stationary point found.
 Normal termination of Gaussian 16 at Sun Nov  4 22:48:10 2018.
