 Gaussian 16, Revision A.03,
 Gaussian 16:  ES64L-G16RevA.03 25-Dec-2016

 ----------------------------------------------------------------------
 #M062X/6-311++G(2d,2p) opt=ModRedundant freq=noraman SCRF=(Solvent=Wat
 er)
 ----------------------------------------------------------------------

 ---------------------------
 L_a1-e4_D_PHI.inp_extract_3
 ---------------------------
 Symbolic Z-matrix:
 Charge =  0 Multiplicity = 1

 SCF Done:  E(RM062X) =  -617.497065691     A.U. after   12 cycles
 SCF Done:  E(RM062X) =  -617.498457312     A.U. after   11 cycles
 SCF Done:  E(RM062X) =  -617.498735567     A.U. after   10 cycles
 SCF Done:  E(RM062X) =  -617.498967978     A.U. after    9 cycles
 SCF Done:  E(RM062X) =  -617.498988472     A.U. after    9 cycles
 SCF Done:  E(RM062X) =  -617.499006284     A.U. after    9 cycles
 SCF Done:  E(RM062X) =  -617.499012442     A.U. after    8 cycles
 SCF Done:  E(RM062X) =  -617.499022476     A.U. after    8 cycles
 SCF Done:  E(RM062X) =  -617.499020833     A.U. after   10 cycles
 SCF Done:  E(RM062X) =  -617.499026060     A.U. after    9 cycles
 SCF Done:  E(RM062X) =  -617.499021112     A.U. after   10 cycles
 SCF Done:  E(RM062X) =  -617.498870449     A.U. after   10 cycles
 SCF Done:  E(RM062X) =  -617.499023864     A.U. after   10 cycles
 SCF Done:  E(RM062X) =  -617.499026036     A.U. after    9 cycles
 SCF Done:  E(RM062X) =  -617.499026833     A.U. after    7 cycles
 SCF Done:  E(RM062X) =  -617.499026780     A.U. after    7 cycles
 SCF Done:  E(RM062X) =  -617.499026905     A.U. after    7 cycles
 SCF Done:  E(RM062X) =  -617.499027736     A.U. after    8 cycles
 SCF Done:  E(RM062X) =  -617.499027591     A.U. after    7 cycles
 Optimization completed.
    -- Stationary point found.
 Normal termination of Gaussian 16 at Sun Nov  4 22:49:56 2018.

 ----------------------------------------------------------------------
 #N Geom=AllCheck Guess=TCheck SCRF=Check GenChk RM062X/6-311++G(2d,2p)
  Freq
 ----------------------------------------------------------------------

 Structure from the checkpoint file:  "L_a1-e4_D_PHI.inp_extract_3.chk"
 ---------------------------
 L_a1-e4_D_PHI.inp_extract_3
 ---------------------------
 Charge =  0 Multiplicity = 1

                         Standard orientation:
 ---------------------------------------------------------------------
 Center     Atomic      Atomic             Coordinates (Angstroms)
 Number     Number       Type             X           Y           Z
 ---------------------------------------------------------------------
      1          6           0        1.934720   -0.571410    1.396212
      2          8           0        1.396496   -1.257261    0.258536
      3          6           0        3.139115    1.021571   -0.069812
      4          8           0       -2.849890   -1.224178    0.155047
      5          6           0        1.314604   -0.498378   -0.916967
      6          6           0        2.590141    0.249487   -1.264369
      7          6           0       -3.025851    1.131146    0.727401
      8          8           0        0.239946    0.436668   -0.908609
      9          6           0       -1.732497    1.420557   -0.034330
     10          6           0       -3.712368   -0.094039    0.144185
     11          6           0       -0.874461    0.168372   -0.072364
     12          6           0       -1.687780   -1.000989   -0.622936
     13          6           0        3.282886    0.060691    1.106740
     14          1           0        1.238851    0.206855    1.723045
     15          1           0        1.997097   -1.323730    2.179004
     16          1           0        2.452813    1.827591    0.200158
     17          1           0        4.094460    1.478166   -0.324829
     18          1           0        1.100696   -1.243153   -1.688149
     19          1           0        3.324932   -0.490166   -1.588316
     20          1           0        2.380409    0.901326   -2.111379
     21          1           0       -3.701065    1.985489    0.678518
     22          1           0       -2.805245    0.944566    1.780581
     23          1           0       -1.964323    1.711594   -1.062587
     24          1           0       -1.175453    2.237785    0.424348
     25          1           0       -4.588735   -0.373170    0.725204
     26          1           0       -4.028157    0.107377   -0.886889
     27          1           0       -0.559477   -0.086083    0.939375
     28          1           0       -1.106512   -1.921232   -0.596585
     29          1           0       -1.963040   -0.783670   -1.663266
     30          1           0        3.629710    0.575386    2.002975
     31          1           0        4.009552   -0.718827    0.866445
 ---------------------------------------------------------------------

 SCF Done:  E(RM062X) =  -617.499027591     A.U. after    1 cycles

 The electronic state is 1-A.
 Alpha  occ. eigenvalues --  -19.63762 -19.63082 -19.63031 -10.63745 -10.58479
 Alpha  occ. eigenvalues --  -10.58254 -10.58014 -10.57766 -10.53249 -10.53227
 Alpha  occ. eigenvalues --  -10.53170 -10.53161 -10.53094  -1.20033  -1.16541
 Alpha  occ. eigenvalues --   -1.13484  -0.91246  -0.90116  -0.87289  -0.84514
 Alpha  occ. eigenvalues --   -0.74925  -0.74300  -0.73175  -0.70509  -0.65669
 Alpha  occ. eigenvalues --   -0.64327  -0.59627  -0.59092  -0.57504  -0.55709
 Alpha  occ. eigenvalues --   -0.54248  -0.53114  -0.52513  -0.50671  -0.50256
 Alpha  occ. eigenvalues --   -0.47993  -0.47037  -0.45967  -0.45753  -0.45133
 Alpha  occ. eigenvalues --   -0.44103  -0.43113  -0.40560  -0.39997  -0.39385
 Alpha  occ. eigenvalues --   -0.38790  -0.37808  -0.36578  -0.35248  -0.34093
 Alpha  occ. eigenvalues --   -0.31373
 Alpha virt. eigenvalues --   -0.00128   0.00730   0.00893   0.01078   0.02186
 Alpha virt. eigenvalues --    0.02505   0.02640   0.03413   0.03465   0.04479
 Alpha virt. eigenvalues --    0.04611   0.04874   0.05643   0.05751   0.07014

 Mulliken charges:
               1
     1  C   -0.133363
     2  O   -0.232609
     3  C   -0.267161
     4  O   -0.307021
     5  C   -0.107585
     6  C   -0.404343
     7  C   -0.359500
     8  O   -0.269879
     9  C   -0.288384
    10  C   -0.134421
    11  C   -0.195489
    12  C   -0.293224
    13  C   -0.407212
    14  H    0.133440
    15  H    0.201093
    16  H    0.164220
    17  H    0.186557
    18  H    0.233304
    19  H    0.196026
    20  H    0.182459
    21  H    0.186587
    22  H    0.159092
    23  H    0.207388
    24  H    0.154992
    25  H    0.210158
    26  H    0.134437
    27  H    0.287967
    28  H    0.221282
    29  H    0.194140
    30  H    0.178464
    31  H    0.168587
 Sum of Mulliken charges =  -0.00000

 Dipole moment (field-independent basis, Debye):
    X=              1.3864    Y=              2.3458    Z=              0.5599  Tot=              2.7818
 Quadrupole moment (field-independent basis, Debye-Ang):
   XX=            -71.9951   YY=            -85.4902   ZZ=            -77.2609
   XY=             -5.4224   XZ=              1.6859   YZ=              3.0412

  Exact polarizability: 173.725  -1.661 153.538  -1.907   0.839 158.158
 Approx polarizability: 145.700  -2.292 141.897  -1.272  -0.587 145.042

                      1                      2                      3
                      A                      A                      A
 Frequencies --     37.9206                48.3761                93.1092
 Red. masses --      3.5756                 3.8877                 3.2746
 Frc consts  --      0.0030                 0.0054                 0.0167
 IR Inten    --      0.2798                 2.4933                 0.4814

                      4                      5                      6
                      A                      A                      A
 Frequencies --    143.6951               185.7824               215.9304
 Red. masses --      3.5445                 2.6438                 3.1867
 Frc consts  --      0.0431                 0.0538                 0.0875
 IR Inten    --      3.7039                 0.0205                14.9075

                      7                      8                      9
                      A                      A                      A
 Frequencies --    255.6144               278.3778               347.3993
 Red. masses --      2.1577                 2.6183                 3.4457
 Frc consts  --      0.0831                 0.1195                 0.2450
 IR Inten    --      1.0832                 4.8075                15.9608

                     10                     11                     12
                      A                      A                      A
 Frequencies --    358.0608               376.2163               435.0796
 Red. masses --      1.8635                 2.5368                 3.4128
 Frc consts  --      0.1408                 0.2115                 0.3806
 IR Inten    --      1.8855                23.4713                 6.0057

                     13                     14                     15
                      A                      A                      A
 Frequencies --    449.2583               460.3298               480.4109
 Red. masses --      3.5147                 3.3942                 2.1881
 Frc consts  --      0.4180                 0.4238                 0.2975
 IR Inten    --      3.5054                 0.5226                 0.9238

                     16                     17                     18
                      A                      A                      A
 Frequencies --    528.7938               572.6259               629.6003
 Red. masses --      2.4212                 2.2358                 2.9759
 Frc consts  --      0.3989                 0.4319                 0.6950
 IR Inten    --      1.2121                 7.7427                 1.6604

                     19                     20                     21
                      A                      A                      A
 Frequencies --    720.7644               822.0027               835.6536
 Red. masses --      3.1921                 2.1370                 2.1463
 Frc consts  --      0.9771                 0.8508                 0.8830
 IR Inten    --      4.0148                 0.4366                 0.9346

                     22                     23                     24
                      A                      A                      A
 Frequencies --    842.0852               877.4766               889.9903
 Red. masses --      2.2242                 1.3972                 2.3067
 Frc consts  --      0.9293                 0.6339                 1.0765
 IR Inten    --      5.8347                 8.2749                11.4765

                     25                     26                     27
                      A                      A                      A
 Frequencies --    902.4845               906.9645               928.2344
 Red. masses --      2.3095                 2.5911                 1.7165
 Frc consts  --      1.1083                 1.2558                 0.8714
 IR Inten    --     18.1314                20.0081                18.6497

                     28                     29                     30
                      A                      A                      A
 Frequencies --    944.7966               980.6660               992.5027
 Red. masses --      2.1498                 2.0693                 1.6089
 Frc consts  --      1.1306                 1.1725                 0.9338
 IR Inten    --     25.5014                91.4785                14.9896

                     31                     32                     33
                      A                      A                      A
 Frequencies --   1016.6293              1043.2776              1054.4837
 Red. masses --      2.3245                 2.2801                 1.7028
 Frc consts  --      1.4155                 1.4622                 1.1155
 IR Inten    --     21.7187                60.6961                31.6117

                     34                     35                     36
                      A                      A                      A
 Frequencies --   1064.6722              1076.5253              1115.0561
 Red. masses --      1.5366                 2.1828                 3.8856
 Frc consts  --      1.0262                 1.4905                 2.8464
 IR Inten    --     77.5520                14.6381               213.5601

                     37                     38                     39
                      A                      A                      A
 Frequencies --   1148.4199              1151.4900              1159.2979
 Red. masses --      3.0492                 2.2979                 2.5554
 Frc consts  --      2.3694                 1.7951                 2.0235
 IR Inten    --    155.5391                53.0353                 8.7252

                     40                     41                     42
                      A                      A                      A
 Frequencies --   1189.1494              1190.3902              1209.2725
 Red. masses --      3.2445                 2.1340                 1.3798
 Frc consts  --      2.7032                 1.7817                 1.1888
 IR Inten    --    188.2867                27.3224                 9.5782

                     43                     44                     45
                      A                      A                      A
 Frequencies --   1220.2973              1238.4918              1252.9143
 Red. masses --      1.6240                 1.8193                 1.5073
 Frc consts  --      1.4248                 1.6441                 1.3941
 IR Inten    --     38.7231                91.0142                26.5804

                     46                     47                     48
                      A                      A                      A
 Frequencies --   1292.5898              1302.3445              1324.8362
 Red. masses --      1.2231                 1.1767                 1.1483
 Frc consts  --      1.2040                 1.1759                 1.1875
 IR Inten    --     24.5475                16.5770                 7.4926

                     49                     50                     51
                      A                      A                      A
 Frequencies --   1329.0802              1344.7989              1361.2713
 Red. masses --      1.2833                 1.2759                 1.3696
 Frc consts  --      1.3356                 1.3595                 1.4953
 IR Inten    --      5.8324                 1.6774                 7.1027

                     52                     53                     54
                      A                      A                      A
 Frequencies --   1362.8176              1384.4898              1387.4134
 Red. masses --      1.2140                 1.4493                 1.4468
 Frc consts  --      1.3285                 1.6368                 1.6408
 IR Inten    --      5.8872                 2.6396                 3.3504

                     55                     56                     57
                      A                      A                      A
 Frequencies --   1391.1501              1398.5748              1403.3897
 Red. masses --      1.5883                 1.6893                 1.2801
 Frc consts  --      1.8110                 1.9469                 1.4854
 IR Inten    --     12.6911                14.7918                13.6081

                     58                     59                     60
                      A                      A                      A
 Frequencies --   1416.5741              1417.9835              1438.3787
 Red. masses --      1.4104                 1.3297                 1.3435
 Frc consts  --      1.6675                 1.5752                 1.6377
 IR Inten    --      9.4737                 3.9699                 1.2317

                     61                     62                     63
                      A                      A                      A
 Frequencies --   1449.6004              1475.3416              1481.0709
 Red. masses --      1.3405                 1.1021                 1.0921
 Frc consts  --      1.6596                 1.4133                 1.4115
 IR Inten    --     16.5469                 5.5669                 7.6362

                     64                     65                     66
                      A                      A                      A
 Frequencies --   1483.5845              1495.3269              1496.0828
 Red. masses --      1.0878                 1.1158                 1.1161
 Frc consts  --      1.4107                 1.4700                 1.4719
 IR Inten    --      9.5673                 7.7062                17.7812

                     67                     68                     69
                      A                      A                      A
 Frequencies --   1500.5824              1510.5556              1513.6268
 Red. masses --      1.0848                 1.0939                 1.1009
 Frc consts  --      1.4392                 1.4707                 1.4860
 IR Inten    --      0.9060                 2.3193                 9.2602

                     70                     71                     72
                      A                      A                      A
 Frequencies --   3013.7329              3019.0733              3048.9028
 Red. masses --      1.0692                 1.0706                 1.0704
 Frc consts  --      5.7214                 5.7492                 5.8624
 IR Inten    --     52.2087                85.3760                71.6113

                     73                     74                     75
                      A                      A                      A
 Frequencies --   3052.4319              3057.6483              3064.7432
 Red. masses --      1.0822                 1.0643                 1.0659
 Frc consts  --      5.9411                 5.8625                 5.8986
 IR Inten    --     39.2841                27.6595                20.3746

                     76                     77                     78
                      A                      A                      A
 Frequencies --   3069.6083              3070.1803              3078.2451
 Red. masses --      1.0624                 1.0622                 1.0646
 Frc consts  --      5.8979                 5.8989                 5.9437
 IR Inten    --     38.0983                32.1963                61.2207

                     79                     80                     81
                      A                      A                      A
 Frequencies --   3105.3004              3116.3689              3117.4357
 Red. masses --      1.0869                 1.0953                 1.0978
 Frc consts  --      6.1750                 6.2672                 6.2860
 IR Inten    --     30.8971                31.9612                54.8738

                     82                     83                     84
                      A                      A                      A
 Frequencies --   3121.3033              3121.5238              3129.9038
 Red. masses --      1.1010                 1.1008                 1.1019
 Frc consts  --      6.3197                 6.3197                 6.3597
 IR Inten    --     74.5310                52.5653                27.4875

                     85                     86                     87
                      A                      A                      A
 Frequencies --   3131.5095              3133.9035              3137.7431
 Red. masses --      1.0943                 1.0954                 1.0976
 Frc consts  --      6.3226                 6.3388                 6.3668
 IR Inten    --     52.4211                50.4416                28.0509

 - Thermochemistry -
 -------------------
 Temperature   298.150 Kelvin.  Pressure   1.00000 Atm.
 Atom     1 has atomic number  6 and mass  12.00000

 Molecular mass:   186.12559 amu.
 Principal axes and moments of inertia in atomic units:
                           1         2         3
     Eigenvalues --   996.280634222.819924319.04421
           X            0.99999  -0.00507   0.00155
           Y            0.00486   0.99357   0.11314
           Z           -0.00212  -0.11313   0.99358
 This molecule is an asymmetric top.
 Rotational symmetry number  1.
 Warning -- assumption of classical behavior for rotation
           may cause significant error
 Rotational temperatures (Kelvin)      0.08694     0.02051     0.02005
 Rotational constants (GHZ):           1.81148     0.42738     0.41786
 Zero-point vibrational energy     737028.8 (Joules/Mol)
                                  176.15411 (Kcal/Mol)
 Warning -- explicit consideration of  17 degrees of freedom as
           vibrations may cause significant error
 Vibrational temperatures:     54.56    69.60   133.96   206.75   267.30
          (Kelvin)            310.68   367.77   400.52   499.83   515.17
                              541.29   625.98   646.38   662.31   691.20
                              760.82   823.88   905.85  1037.02  1182.68
                             1202.32  1211.57  1262.49  1280.50  1298.47
                             1304.92  1335.52  1359.35  1410.96  1427.99
                             1462.70  1501.04  1517.17  1531.83  1548.88
                             1604.32  1652.32  1656.74  1667.97  1710.92
                             1712.71  1739.87  1755.74  1781.91  1802.66
                             1859.75  1873.78  1906.14  1912.25  1934.87
                             1958.57  1960.79  1991.97  1996.18  2001.55
                             2012.24  2019.16  2038.13  2040.16  2069.51
                             2085.65  2122.69  2130.93  2134.55  2151.44
                             2152.53  2159.00  2173.35  2177.77  4336.09
                             4343.77  4386.69  4391.77  4399.27  4409.48
                             4416.48  4417.30  4428.91  4467.83  4483.76
                             4485.29  4490.86  4491.18  4503.23  4505.54
                             4508.99  4514.51

 Zero-point correction=                           0.280719 (Hartree/Particle)
 Thermal correction to Energy=                    0.292518
 Thermal correction to Enthalpy=                  0.293462
 Thermal correction to Gibbs Free Energy=         0.242152
 Sum of electronic and zero-point Energies=           -617.218308
 Sum of electronic and thermal Energies=              -617.206510
 Sum of electronic and thermal Enthalpies=            -617.205566
 Sum of electronic and thermal Free Energies=         -617.256875

                     E (Thermal)             CV                S
                      KCal/Mol        Cal/Mol-Kelvin    Cal/Mol-Kelvin
 Total                  183.558             46.775            107.989
 Electronic               0.000              0.000              0.000
 Translational            0.889              2.981             41.570
 Rotational               0.889              2.981             31.275
 Vibrational            181.780             40.813             35.145
 Vibration     1          0.594              1.982              5.365
 Vibration     2          0.595              1.978              4.883
 Vibration     3          0.602              1.954              3.594
 Vibration     4          0.616              1.909              2.754
 Vibration     5          0.632              1.859              2.270
 Vibration     6          0.645              1.817              1.993
 Vibration     7          0.666              1.753              1.692
 Vibration     8          0.679              1.714              1.544
 Vibration     9          0.725              1.581              1.178
 Vibration    10          0.733              1.559              1.131
 Vibration    11          0.747              1.521              1.054
 Vibration    12          0.796              1.394              0.842
 Vibration    13          0.808              1.363              0.798
 Vibration    14          0.818              1.338              0.765
 Vibration    15          0.837              1.294              0.709
 Vibration    16          0.884              1.186              0.590
 Vibration    17          0.929              1.090              0.499

 Optimization completed.
    -- Stationary point found.
 Normal termination of Gaussian 16 at Sun Nov  4 23:44:40 2018.
