 Gaussian 16, Revision A.03,
 Gaussian 16:  ES64L-G16RevA.03 25-Dec-2016

 ----------------------------------------------------------------------
 #M062X/6-311++G(2d,2p) opt=ModRedundant freq=noraman SCRF=(Solvent=Wat
 er)
 ----------------------------------------------------------------------

 ---------------------------
 L_a1-e4_D_PHI.inp_extract_7
 ---------------------------
 Symbolic Z-matrix:
 Charge =  0 Multiplicity = 1

 SCF Done:  E(RM062X) =  -617.489447118     A.U. after   12 cycles
 SCF Done:  E(RM062X) =  -617.489762958     A.U. after   11 cycles
 SCF Done:  E(RM062X) =  -617.491215886     A.U. after   11 cycles
 SCF Done:  E(RM062X) =  -617.491563257     A.U. after   11 cycles
 SCF Done:  E(RM062X) =  -617.491700651     A.U. after   10 cycles
 SCF Done:  E(RM062X) =  -617.491710625     A.U. after    9 cycles
 SCF Done:  E(RM062X) =  -617.491711111     A.U. after    8 cycles
 SCF Done:  E(RM062X) =  -617.491711771     A.U. after    8 cycles
 SCF Done:  E(RM062X) =  -617.491711706     A.U. after    7 cycles
 Optimization completed.
    -- Stationary point found.
 Normal termination of Gaussian 16 at Sun Nov  4 22:10:07 2018.

 ----------------------------------------------------------------------
 #N Geom=AllCheck Guess=TCheck SCRF=Check GenChk RM062X/6-311++G(2d,2p)
  Freq
 ----------------------------------------------------------------------

 Structure from the checkpoint file:  "L_a1-e4_D_PHI.inp_extract_7.chk"
 ---------------------------
 L_a1-e4_D_PHI.inp_extract_7
 ---------------------------
 Charge =  0 Multiplicity = 1

                         Standard orientation:
 ---------------------------------------------------------------------
 Center     Atomic      Atomic             Coordinates (Angstroms)
 Number     Number       Type             X           Y           Z
 ---------------------------------------------------------------------
      1          6           0       -1.800111    1.509318    0.307666
      2          8           0       -1.622971    0.937287   -0.993200
      3          6           0       -2.494809   -0.715105    1.197059
      4          8           0        2.417564    1.391225    0.076857
      5          6           0       -1.512260   -0.454547   -1.138256
      6          6           0       -2.464605   -1.234559   -0.236282
      7          6           0        2.960257   -0.806187    0.949819
      8          8           0       -0.180986   -0.950532   -1.038887
      9          6           0        1.827451   -1.414311    0.124468
     10          6           0        3.470556    0.458560    0.279137
     11          6           0        0.758326   -0.367070   -0.150256
     12          6           0        1.406114    0.871832   -0.768002
     13          6           0       -2.820728    0.774106    1.156593
     14          1           0       -0.840296    1.557284    0.827378
     15          1           0       -2.118255    2.532158    0.116661
     16          1           0       -1.534756   -0.881060    1.690508
     17          1           0       -3.243955   -1.257569    1.772552
     18          1           0       -1.772920   -0.643737   -2.178417
     19          1           0       -3.466233   -1.138899   -0.662257
     20          1           0       -2.185187   -2.285445   -0.287216
     21          1           0        3.778590   -1.517402    1.062945
     22          1           0        2.600524   -0.554985    1.949944
     23          1           0        2.213531   -1.764270   -0.837093
     24          1           0        1.380316   -2.268999    0.632156
     25          1           0        4.213457    0.963591    0.892851
     26          1           0        3.926014    0.214403   -0.688463
     27          1           0        0.291882   -0.093823    0.797999
     28          1           0        0.679107    1.664360   -0.920542
     29          1           0        1.828981    0.590472   -1.741189
     30          1           0       -2.824649    1.214469    2.153621
     31          1           0       -3.816145    0.913398    0.728719
 ---------------------------------------------------------------------

 SCF Done:  E(RM062X) =  -617.491711706     A.U. after    1 cycles

 The electronic state is 1-A.
 Alpha  occ. eigenvalues --  -19.63654 -19.63055 -19.62793 -10.63960 -10.58812
 Alpha  occ. eigenvalues --  -10.58440 -10.57993 -10.57666 -10.53382 -10.53274
 Alpha  occ. eigenvalues --  -10.53235 -10.53177 -10.53153  -1.19578  -1.16510
 Alpha  occ. eigenvalues --   -1.13499  -0.91020  -0.90423  -0.87553  -0.84444
 Alpha  occ. eigenvalues --   -0.75164  -0.74148  -0.73734  -0.70503  -0.65868
 Alpha  occ. eigenvalues --   -0.64473  -0.59604  -0.58238  -0.57427  -0.55506
 Alpha  occ. eigenvalues --   -0.54937  -0.53278  -0.52455  -0.51083  -0.50472
 Alpha  occ. eigenvalues --   -0.48382  -0.47339  -0.45858  -0.45411  -0.44556
 Alpha  occ. eigenvalues --   -0.43676  -0.43267  -0.40662  -0.40517  -0.39639
 Alpha  occ. eigenvalues --   -0.39020  -0.37685  -0.37150  -0.34434  -0.33536
 Alpha  occ. eigenvalues --   -0.31339
 Alpha virt. eigenvalues --   -0.00205   0.00638   0.00870   0.01099   0.02257
 Alpha virt. eigenvalues --    0.02579   0.02674   0.03224   0.03550   0.04699
 Alpha virt. eigenvalues --    0.04829   0.05082   0.05520   0.05784   0.07319

 Mulliken charges:
               1
     1  C   -0.211264
     2  O   -0.289205
     3  C   -0.292579
     4  O   -0.294467
     5  C   -0.185059
     6  C   -0.229539
     7  C   -0.371522
     8  O   -0.244908
     9  C   -0.348823
    10  C   -0.150454
    11  C   -0.153827
    12  C   -0.378470
    13  C   -0.395562
    14  H    0.185750
    15  H    0.223249
    16  H    0.164951
    17  H    0.211542
    18  H    0.248756
    19  H    0.194828
    20  H    0.184671
    21  H    0.188097
    22  H    0.159673
    23  H    0.210436
    24  H    0.159214
    25  H    0.204122
    26  H    0.144444
    27  H    0.308837
    28  H    0.208599
    29  H    0.198748
    30  H    0.175308
    31  H    0.174455
 Sum of Mulliken charges =  -0.00000

 Dipole moment (field-independent basis, Debye):
    X=             -0.9595    Y=             -1.5702    Z=              2.3549  Tot=              2.9886
 Quadrupole moment (field-independent basis, Debye-Ang):
   XX=            -70.9839   YY=            -84.1370   ZZ=            -80.9077
   XY=             -4.0619   XZ=             -2.0479   YZ=              0.1934

  Exact polarizability: 171.922  -0.811 158.565   2.243   2.531 155.275
 Approx polarizability: 146.334  -1.636 143.050   2.343   3.144 143.779

 ******    1 imaginary frequencies (negative Signs) ******

                      1                      2                      3
                      A                      A                      A
 Frequencies --    -21.4017                63.5692                86.3477
 Red. masses --      4.0549                 3.2436                 3.7679
 Frc consts  --      0.0011                 0.0077                 0.0166
 IR Inten    --      2.4104                 1.5580                 2.6655

                      4                      5                      6
                      A                      A                      A
 Frequencies --    135.7959               197.6548               229.3263
 Red. masses --      3.3345                 3.1640                 2.6770
 Frc consts  --      0.0362                 0.0728                 0.0829
 IR Inten    --      1.1917                 3.4559                 4.6547

                      7                      8                      9
                      A                      A                      A
 Frequencies --    262.0668               288.9064               323.6990
 Red. masses --      2.1964                 3.8915                 2.4393
 Frc consts  --      0.0889                 0.1914                 0.1506
 IR Inten    --      5.8574                 9.0846                 9.2407

                     10                     11                     12
                      A                      A                      A
 Frequencies --    359.0730               389.2822               435.4510
 Red. masses --      2.2155                 2.4904                 3.3184
 Frc consts  --      0.1683                 0.2224                 0.3707
 IR Inten    --      9.9285                17.4669                 4.1876

                     13                     14                     15
                      A                      A                      A
 Frequencies --    435.6743               456.3918               488.2689
 Red. masses --      3.1330                 3.4313                 2.2495
 Frc consts  --      0.3504                 0.4211                 0.3160
 IR Inten    --      0.8205                 1.1171                 1.3744

                     16                     17                     18
                      A                      A                      A
 Frequencies --    516.6040               569.9536               595.7318
 Red. masses --      3.0602                 2.1210                 2.4681
 Frc consts  --      0.4812                 0.4059                 0.5161
 IR Inten    --      2.1504                11.1587                 0.1021

                     19                     20                     21
                      A                      A                      A
 Frequencies --    738.3177               802.3229               834.4630
 Red. masses --      3.3326                 2.2306                 1.8966
 Frc consts  --      1.0703                 0.8460                 0.7781
 IR Inten    --      8.3376                 3.5381                 3.7649

                     22                     23                     24
                      A                      A                      A
 Frequencies --    849.7531               880.3665               882.8956
 Red. masses --      2.3182                 1.6432                 1.9703
 Frc consts  --      0.9863                 0.7504                 0.9049
 IR Inten    --      1.6670                10.9497                11.6304

                     25                     26                     27
                      A                      A                      A
 Frequencies --    896.9082               903.5629               932.9668
 Red. masses --      2.5568                 2.2382                 1.8143
 Frc consts  --      1.2118                 1.0766                 0.9305
 IR Inten    --     36.0742                13.3428                13.1246

                     28                     29                     30
                      A                      A                      A
 Frequencies --    950.0673               965.5489               998.7471
 Red. masses --      1.8428                 2.4270                 1.5536
 Frc consts  --      0.9800                 1.3331                 0.9131
 IR Inten    --     11.4376                98.1698                 8.5751

                     31                     32                     33
                      A                      A                      A
 Frequencies --   1015.5789              1048.1888              1057.6903
 Red. masses --      2.2890                 2.1662                 1.8278
 Frc consts  --      1.3910                 1.4022                 1.2048
 IR Inten    --     10.5279                10.3720                33.0091

                     34                     35                     36
                      A                      A                      A
 Frequencies --   1066.9273              1075.3020              1104.1815
 Red. masses --      1.8735                 1.7859                 2.6986
 Frc consts  --      1.2566                 1.2167                 1.9385
 IR Inten    --     90.3689                58.8401               155.6810

                     37                     38                     39
                      A                      A                      A
 Frequencies --   1144.5339              1150.7305              1156.0188
 Red. masses --      2.4720                 2.8417                 2.6548
 Frc consts  --      1.9079                 2.2171                 2.0903
 IR Inten    --    138.6455                46.6968                47.9349

                     40                     41                     42
                      A                      A                      A
 Frequencies --   1187.4984              1194.9974              1213.4909
 Red. masses --      2.4848                 2.4417                 1.5198
 Frc consts  --      2.0645                 2.0544                 1.3186
 IR Inten    --    120.7919               109.2792                 2.2037

                     43                     44                     45
                      A                      A                      A
 Frequencies --   1215.0145              1243.1142              1254.5365
 Red. masses --      1.5495                 1.8714                 1.5525
 Frc consts  --      1.3477                 1.7039                 1.4396
 IR Inten    --     96.1166               114.0021                38.0369

                     46                     47                     48
                      A                      A                      A
 Frequencies --   1295.9104              1302.1958              1320.9786
 Red. masses --      1.2233                 1.1976                 1.1613
 Frc consts  --      1.2104                 1.1965                 1.1940
 IR Inten    --     20.6761                33.6729                11.1631

                     49                     50                     51
                      A                      A                      A
 Frequencies --   1327.5712              1345.0009              1350.4525
 Red. masses --      1.2503                 1.2704                 1.2068
 Frc consts  --      1.2983                 1.3540                 1.2967
 IR Inten    --     11.3035                 0.3159                 7.9272

                     52                     53                     54
                      A                      A                      A
 Frequencies --   1360.6759              1383.8368              1387.9910
 Red. masses --      1.3548                 1.4598                 1.4785
 Frc consts  --      1.4779                 1.6471                 1.6782
 IR Inten    --      4.7659                 1.8352                 7.1041

                     55                     56                     57
                      A                      A                      A
 Frequencies --   1393.1191              1395.6664              1407.0604
 Red. masses --      1.6766                 1.4283                 1.3541
 Frc consts  --      1.9172                 1.6392                 1.5796
 IR Inten    --     17.7093                 1.6715                 0.7901

                     58                     59                     60
                      A                      A                      A
 Frequencies --   1411.6853              1422.2386              1430.1075
 Red. masses --      1.4515                 1.2901                 1.3922
 Frc consts  --      1.7043                 1.5375                 1.6776
 IR Inten    --     11.6069                14.4925                 9.1378

                     61                     62                     63
                      A                      A                      A
 Frequencies --   1442.5726              1476.0199              1481.4844
 Red. masses --      1.2782                 1.0985                 1.0923
 Frc consts  --      1.5672                 1.4101                 1.4126
 IR Inten    --      7.8760                 4.5322                 7.7755

                     64                     65                     66
                      A                      A                      A
 Frequencies --   1488.2200              1495.8529              1503.9456
 Red. masses --      1.0902                 1.1096                 1.0844
 Frc consts  --      1.4227                 1.4628                 1.4451
 IR Inten    --      9.1117                10.9540                 0.7715

                     67                     68                     69
                      A                      A                      A
 Frequencies --   1507.0614              1518.0062              1534.1970
 Red. masses --      1.1034                 1.0983                 1.0881
 Frc consts  --      1.4765                 1.4912                 1.5090
 IR Inten    --     13.1763                13.6481                 4.3375

                     70                     71                     72
                      A                      A                      A
 Frequencies --   3015.9245              3020.7017              3056.0471
 Red. masses --      1.0710                 1.0704                 1.0656
 Frc consts  --      5.7396                 5.7545                 5.8635
 IR Inten    --     46.8789                89.6774                30.6666

                     73                     74                     75
                      A                      A                      A
 Frequencies --   3060.7411              3067.0769              3067.6131
 Red. masses --      1.0710                 1.0679                 1.0631
 Frc consts  --      5.9114                 5.9186                 5.8940
 IR Inten    --     10.1822                37.4217                38.7149

                     76                     77                     78
                      A                      A                      A
 Frequencies --   3069.7849              3073.5062              3095.8134
 Red. masses --      1.0623                 1.0621                 1.0787
 Frc consts  --      5.8980                 5.9113                 6.0911
 IR Inten    --     32.6134                32.0919                66.1922

                     79                     80                     81
                      A                      A                      A
 Frequencies --   3107.3026              3114.8860              3115.9948
 Red. masses --      1.0876                 1.0980                 1.0976
 Frc consts  --      6.1872                 6.2769                 6.2792
 IR Inten    --     64.6797                51.8845                22.2343

                     82                     83                     84
                      A                      A                      A
 Frequencies --   3119.9949              3120.6866              3130.1992
 Red. masses --      1.1008                 1.1010                 1.1004
 Frc consts  --      6.3133                 6.3172                 6.3524
 IR Inten    --     64.9396                64.4999                47.3233

                     85                     86                     87
                      A                      A                      A
 Frequencies --   3132.6533              3132.9559              3162.3412
 Red. masses --      1.0948                 1.0990                 1.0927
 Frc consts  --      6.3303                 6.3559                 6.4381
 IR Inten    --     48.1027                40.5771                21.1866

 - Thermochemistry -
 -------------------
 Temperature   298.150 Kelvin.  Pressure   1.00000 Atm.
 Atom     1 has atomic number  6 and mass  12.00000

 Molecular mass:   186.12559 amu.
 Principal axes and moments of inertia in atomic units:
                           1         2         3
     Eigenvalues --  1191.270233658.360863906.76788
           X            0.99994  -0.00752  -0.00749
           Y            0.00745   0.99993  -0.00932
           Z            0.00756   0.00926   0.99993
 This molecule is an asymmetric top.
 Rotational symmetry number  1.
 Warning -- assumption of classical behavior for rotation
           may cause significant error
 Rotational temperatures (Kelvin)      0.07271     0.02368     0.02217
 Rotational constants (GHZ):           1.51497     0.49332     0.46195
    1 imaginary frequencies ignored.
 Zero-point vibrational energy     737160.4 (Joules/Mol)
                                  176.18556 (Kcal/Mol)
 Warning -- explicit consideration of  17 degrees of freedom as
           vibrations may cause significant error
 Vibrational temperatures:     91.46   124.24   195.38   284.38   329.95
          (Kelvin)            377.06   415.67   465.73   516.63   560.09
                              626.52   626.84   656.65   702.51   743.28
                              820.04   857.13  1062.27  1154.36  1200.61
                             1222.61  1266.65  1270.29  1290.45  1300.03
                             1342.33  1366.93  1389.21  1436.97  1461.19
                             1508.11  1521.78  1535.07  1547.12  1588.67
                             1646.73  1655.64  1663.25  1708.55  1719.33
                             1745.94  1748.13  1788.56  1805.00  1864.53
                             1873.57  1900.59  1910.08  1935.16  1943.00
                             1957.71  1991.03  1997.01  2004.39  2008.05
                             2024.45  2031.10  2046.28  2057.61  2075.54
                             2123.66  2131.53  2141.22  2152.20  2163.84
                             2168.33  2184.07  2207.37  4339.24  4346.12
                             4396.97  4403.72  4412.84  4413.61  4416.74
                             4422.09  4454.18  4470.72  4481.63  4483.22
                             4488.98  4489.97  4503.66  4507.19  4507.62
                             4549.90

 Zero-point correction=                           0.280770 (Hartree/Particle)
 Thermal correction to Energy=                    0.291691
 Thermal correction to Enthalpy=                  0.292635
 Thermal correction to Gibbs Free Energy=         0.244113
 Sum of electronic and zero-point Energies=           -617.210942
 Sum of electronic and thermal Energies=              -617.200021
 Sum of electronic and thermal Enthalpies=            -617.199077
 Sum of electronic and thermal Free Energies=         -617.247599

                     E (Thermal)             CV                S
                      KCal/Mol        Cal/Mol-Kelvin    Cal/Mol-Kelvin
 Total                  183.039             44.880            102.123
 Electronic               0.000              0.000              0.000
 Translational            0.889              2.981             41.570
 Rotational               0.889              2.981             31.210
 Vibrational            181.261             38.919             29.343
 Vibration     1          0.597              1.972              4.343
 Vibration     2          0.601              1.959              3.741
 Vibration     3          0.614              1.918              2.862
 Vibration     4          0.637              1.843              2.155
 Vibration     5          0.652              1.796              1.884
 Vibration     6          0.669              1.742              1.648
 Vibration     7          0.685              1.694              1.480
 Vibration     8          0.708              1.628              1.291
 Vibration     9          0.734              1.557              1.126
 Vibration    10          0.757              1.493              1.003
 Vibration    11          0.796              1.393              0.841
 Vibration    12          0.796              1.392              0.840
 Vibration    13          0.815              1.347              0.777
 Vibration    14          0.844              1.276              0.688
 Vibration    15          0.872              1.213              0.618
 Vibration    16          0.926              1.096              0.504
 Vibration    17          0.953              1.041              0.457

 Optimization completed.
    -- Stationary point found.
 Normal termination of Gaussian 16 at Sun Nov  4 23:03:17 2018.
