 Gaussian 16, Revision A.03,
 Gaussian 16:  ES64L-G16RevA.03 25-Dec-2016

 ----------------------------------------------------------------------
 #M062X/6-311++G(2d,2p) opt=ModRedundant freq=noraman SCRF=(Solvent=Wat
 er)
 ----------------------------------------------------------------------

 ----------------------------
 L_a1-e4_D_PHI.inp_extract_19
 ----------------------------
 Symbolic Z-matrix:
 Charge =  0 Multiplicity = 1

 SCF Done:  E(RM062X) =  -617.498608961     A.U. after   12 cycles
 SCF Done:  E(RM062X) =  -617.500114485     A.U. after   10 cycles
 SCF Done:  E(RM062X) =  -617.500204618     A.U. after    9 cycles
 SCF Done:  E(RM062X) =  -617.500216802     A.U. after    8 cycles
 SCF Done:  E(RM062X) =  -617.500219765     A.U. after    8 cycles
 SCF Done:  E(RM062X) =  -617.500221291     A.U. after    8 cycles
 SCF Done:  E(RM062X) =  -617.500221661     A.U. after    7 cycles
 Optimization completed.
    -- Stationary point found.
 Normal termination of Gaussian 16 at Sun Nov  4 21:57:38 2018.

 ----------------------------------------------------------------------
 #N Geom=AllCheck Guess=TCheck SCRF=Check GenChk RM062X/6-311++G(2d,2p)
  Freq
 ----------------------------------------------------------------------

 Structure from the checkpoint file:  "L_a1-e4_D_PHI.inp_extract_19.chk"
 ----------------------------
 L_a1-e4_D_PHI.inp_extract_19
 ----------------------------
 Charge =  0 Multiplicity = 1

                         Standard orientation:
 ---------------------------------------------------------------------
 Center     Atomic      Atomic             Coordinates (Angstroms)
 Number     Number       Type             X           Y           Z
 ---------------------------------------------------------------------
      1          6           0       -2.915610   -0.714427   -1.051081
      2          8           0       -2.108438   -1.412607   -0.098261
      3          6           0       -2.780672    1.348532    0.334907
      4          8           0        3.066936    1.343422   -0.166098
      5          6           0       -1.208061   -0.592470    0.590506
      6          6           0       -1.907652    0.556403    1.305311
      7          6           0        3.303587   -0.982631    0.494945
      8          8           0       -0.254952   -0.092336   -0.334212
      9          6           0        1.850459   -1.248538    0.099720
     10          6           0        3.859432    0.172407   -0.322544
     11          6           0        1.052805    0.045266    0.197822
     12          6           0        1.737686    1.142252   -0.604716
     13          6           0       -3.722280    0.391643   -0.393410
     14          1           0       -2.272997   -0.302530   -1.833302
     15          1           0       -3.558132   -1.470878   -1.495433
     16          1           0       -2.145321    1.857287   -0.393242
     17          1           0       -3.340335    2.114653    0.870088
     18          1           0       -0.709483   -1.249410    1.305581
     19          1           0       -2.522966    0.132231    2.101545
     20          1           0       -1.154125    1.190954    1.773419
     21          1           0        3.915262   -1.870638    0.335618
     22          1           0        3.362882   -0.726981    1.555049
     23          1           0        1.804418   -1.593250   -0.936885
     24          1           0        1.409198   -2.024258    0.726069
     25          1           0        4.863996    0.440257   -0.002648
     26          1           0        3.893179   -0.100082   -1.384447
     27          1           0        1.003313    0.371257    1.243311
     28          1           0        1.208674    2.085504   -0.481455
     29          1           0        1.724389    0.866931   -1.667012
     30          1           0       -4.304847    0.912090   -1.154076
     31          1           0       -4.423626   -0.051591    0.317626
 ---------------------------------------------------------------------

 SCF Done:  E(RM062X) =  -617.500221661     A.U. after    1 cycles

 The electronic state is 1-A.
 Alpha  occ. eigenvalues --  -19.63232 -19.63224 -19.63090 -10.63715 -10.59011
 Alpha  occ. eigenvalues --  -10.58195 -10.58118 -10.57862 -10.53357 -10.53261
 Alpha  occ. eigenvalues --  -10.53079 -10.53020 -10.52909  -1.20110  -1.16763
 Alpha  occ. eigenvalues --   -1.13731  -0.90685  -0.89932  -0.87410  -0.84703
 Alpha  occ. eigenvalues --   -0.74856  -0.73494  -0.73315  -0.71342  -0.66000
 Alpha  occ. eigenvalues --   -0.63994  -0.60258  -0.58285  -0.57697  -0.55321
 Alpha  occ. eigenvalues --   -0.54571  -0.53349  -0.52517  -0.50680  -0.49963
 Alpha  occ. eigenvalues --   -0.48396  -0.47386  -0.46094  -0.45640  -0.44920
 Alpha  occ. eigenvalues --   -0.44035  -0.42473  -0.41327  -0.40507  -0.39468
 Alpha  occ. eigenvalues --   -0.38253  -0.37938  -0.37541  -0.34838  -0.33032
 Alpha  occ. eigenvalues --   -0.31842
 Alpha virt. eigenvalues --   -0.00068   0.00757   0.00783   0.01117   0.02175
 Alpha virt. eigenvalues --    0.02395   0.02647   0.03510   0.03587   0.04358
 Alpha virt. eigenvalues --    0.04530   0.04727   0.05604   0.05768   0.06942

 Mulliken charges:
               1
     1  C   -0.199900
     2  O   -0.290928
     3  C   -0.348345
     4  O   -0.326404
     5  C   -0.158119
     6  C   -0.156493
     7  C   -0.370456
     8  O   -0.309732
     9  C   -0.126633
    10  C   -0.182861
    11  C   -0.209784
    12  C   -0.308758
    13  C   -0.389364
    14  H    0.166717
    15  H    0.213032
    16  H    0.176316
    17  H    0.174172
    18  H    0.281477
    19  H    0.196487
    20  H    0.156780
    21  H    0.179414
    22  H    0.162929
    23  H    0.211700
    24  H    0.144240
    25  H    0.209173
    26  H    0.137214
    27  H    0.247196
    28  H    0.195198
    29  H    0.191628
    30  H    0.166786
    31  H    0.167319
 Sum of Mulliken charges =  -0.00000

 Dipole moment (field-independent basis, Debye):
    X=             -0.1853    Y=             -0.1184    Z=              0.8530  Tot=              0.8809
 Quadrupole moment (field-independent basis, Debye-Ang):
   XX=            -74.4125   YY=            -85.8117   ZZ=            -77.4425
   XY=            -11.1513   XZ=              0.1656   YZ=             -0.5467

  Exact polarizability: 177.618  -2.179 154.608   3.733  -0.032 153.244
 Approx polarizability: 148.440   0.129 140.728   2.505  -0.117 142.801

                      1                      2                      3
                      A                      A                      A
 Frequencies --     20.6036                40.7478                77.0102
 Red. masses --      4.2933                 3.5523                 3.2503
 Frc consts  --      0.0011                 0.0035                 0.0114
 IR Inten    --      1.7813                 2.3940                 0.3268

                      4                      5                      6
                      A                      A                      A
 Frequencies --    139.4954               181.9662               231.2557
 Red. masses --      3.4033                 2.8534                 2.5621
 Frc consts  --      0.0390                 0.0557                 0.0807
 IR Inten    --      3.8393                 1.9296                 1.2389

                      7                      8                      9
                      A                      A                      A
 Frequencies --    248.5189               278.5371               337.7141
 Red. masses --      2.0538                 2.8869                 2.8310
 Frc consts  --      0.0747                 0.1320                 0.1902
 IR Inten    --      5.7963                 2.9243                 3.5067

                     10                     11                     12
                      A                      A                      A
 Frequencies --    367.4620               416.8510               426.0337
 Red. masses --      2.0831                 2.6037                 2.8114
 Frc consts  --      0.1657                 0.2666                 0.3007
 IR Inten    --     10.0173                12.6703                12.2125

                     13                     14                     15
                      A                      A                      A
 Frequencies --    450.9075               463.7259               493.5416
 Red. masses --      3.6817                 4.4983                 2.3987
 Frc consts  --      0.4410                 0.5699                 0.3443
 IR Inten    --      0.6722                 5.9831                 0.4274

                     16                     17                     18
                      A                      A                      A
 Frequencies --    517.4064               540.9866               606.3326
 Red. masses --      3.1805                 2.1801                 2.1594
 Frc consts  --      0.5017                 0.3759                 0.4677
 IR Inten    --      3.0517                 9.0867                 8.7349

                     19                     20                     21
                      A                      A                      A
 Frequencies --    724.9271               829.8941               833.4256
 Red. masses --      2.9443                 2.3405                 1.5917
 Frc consts  --      0.9116                 0.9497                 0.6514
 IR Inten    --     10.2732                 0.8014                 1.0445

                     22                     23                     24
                      A                      A                      A
 Frequencies --    847.4189               876.6492               892.5851
 Red. masses --      2.8682                 1.4030                 2.3999
 Frc consts  --      1.2135                 0.6353                 1.1265
 IR Inten    --      1.6294                13.9258                 9.4427

                     25                     26                     27
                      A                      A                      A
 Frequencies --    900.1736               905.1947               936.6854
 Red. masses --      2.4081                 2.3232                 1.6517
 Frc consts  --      1.1497                 1.1216                 0.8538
 IR Inten    --      4.7359                48.7598                27.2948

                     28                     29                     30
                      A                      A                      A
 Frequencies --    942.9444               981.8182               999.2678
 Red. masses --      2.1267                 2.4249                 1.4357
 Frc consts  --      1.1141                 1.3773                 0.8446
 IR Inten    --     39.3756                29.9596                25.6179

                     31                     32                     33
                      A                      A                      A
 Frequencies --   1022.8123              1046.8096              1056.3229
 Red. masses --      2.1751                 2.3468                 1.7278
 Frc consts  --      1.3406                 1.5152                 1.1359
 IR Inten    --     44.8425                94.6505                32.3966

                     34                     35                     36
                      A                      A                      A
 Frequencies --   1068.6514              1075.7191              1129.6188
 Red. masses --      1.6170                 2.1265                 4.2851
 Frc consts  --      1.0880                 1.4498                 3.2216
 IR Inten    --     91.0164                11.5568               371.0512

                     37                     38                     39
                      A                      A                      A
 Frequencies --   1147.3288              1152.6455              1162.2417
 Red. masses --      2.3930                 3.1367                 2.8718
 Frc consts  --      1.8559                 2.4553                 2.2856
 IR Inten    --     19.7399               178.5454                23.6650

                     40                     41                     42
                      A                      A                      A
 Frequencies --   1174.9227              1193.4244              1209.6184
 Red. masses --      2.5010                 2.4256                 1.4827
 Frc consts  --      2.0341                 2.0355                 1.2782
 IR Inten    --     37.2386                55.7348                14.8703

                     43                     44                     45
                      A                      A                      A
 Frequencies --   1213.0391              1243.2925              1249.2306
 Red. masses --      1.4533                 1.8231                 1.5453
 Frc consts  --      1.2599                 1.6604                 1.4209
 IR Inten    --     17.5984                63.1892                66.2841

                     46                     47                     48
                      A                      A                      A
 Frequencies --   1286.9603              1304.1387              1319.6331
 Red. masses --      1.2180                 1.1968                 1.1496
 Frc consts  --      1.1886                 1.1992                 1.1796
 IR Inten    --     21.2695                 8.8023                 7.6409

                     49                     50                     51
                      A                      A                      A
 Frequencies --   1330.6818              1345.1370              1354.5835
 Red. masses --      1.2892                 1.2788                 1.2361
 Frc consts  --      1.3449                 1.3633                 1.3363
 IR Inten    --     10.7778                 3.7565                18.9597

                     52                     53                     54
                      A                      A                      A
 Frequencies --   1361.3344              1381.8154              1383.4413
 Red. masses --      1.3148                 1.4241                 1.5322
 Frc consts  --      1.4356                 1.6021                 1.7278
 IR Inten    --      6.2119                 8.4448                 9.1074

                     55                     56                     57
                      A                      A                      A
 Frequencies --   1390.2814              1395.1291              1403.3454
 Red. masses --      1.6214                 1.5090                 1.3161
 Frc consts  --      1.8465                 1.7305                 1.5271
 IR Inten    --      5.4297                33.4390                 8.1396

                     58                     59                     60
                      A                      A                      A
 Frequencies --   1409.4633              1417.1663              1431.9861
 Red. masses --      1.3462                 1.3679                 1.4035
 Frc consts  --      1.5756                 1.6186                 1.6957
 IR Inten    --     17.0764                12.3042                 4.6754

                     61                     62                     63
                      A                      A                      A
 Frequencies --   1448.6168              1477.0206              1481.1336
 Red. masses --      1.3591                 1.1029                 1.0925
 Frc consts  --      1.6803                 1.4176                 1.4120
 IR Inten    --     10.2575                 5.6249                 7.5393

                     64                     65                     66
                      A                      A                      A
 Frequencies --   1483.5847              1494.5351              1496.1254
 Red. masses --      1.0860                 1.1127                 1.1067
 Frc consts  --      1.4083                 1.4643                 1.4595
 IR Inten    --      9.5110                 8.2636                18.6798

                     67                     68                     69
                      A                      A                      A
 Frequencies --   1501.5528              1512.3589              1514.5127
 Red. masses --      1.0877                 1.0941                 1.1020
 Frc consts  --      1.4449                 1.4744                 1.4892
 IR Inten    --      0.5703                 4.6838                10.1431

                     70                     71                     72
                      A                      A                      A
 Frequencies --   3017.7263              3022.5214              3032.8203
 Red. masses --      1.0704                 1.0705                 1.0807
 Frc consts  --      5.7431                 5.7618                 5.8569
 IR Inten    --     26.5241                82.2223                52.6822

                     73                     74                     75
                      A                      A                      A
 Frequencies --   3059.6120              3061.2014              3066.2931
 Red. masses --      1.0678                 1.0640                 1.0636
 Frc consts  --      5.8893                 5.8745                 5.8922
 IR Inten    --     32.0965                35.2643                50.5235

                     76                     77                     78
                      A                      A                      A
 Frequencies --   3069.0980              3070.8113              3071.2856
 Red. masses --      1.0648                 1.0622                 1.0608
 Frc consts  --      5.9093                 5.9016                 5.8954
 IR Inten    --     12.8773                36.0181                41.1841

                     79                     80                     81
                      A                      A                      A
 Frequencies --   3086.8446              3113.1425              3113.9134
 Red. masses --      1.0852                 1.0972                 1.0994
 Frc consts  --      6.0923                 6.2651                 6.2807
 IR Inten    --     60.6929                45.3929                35.4177

                     82                     83                     84
                      A                      A                      A
 Frequencies --   3115.2047              3121.1712              3121.5823
 Red. masses --      1.1018                 1.1050                 1.1024
 Frc consts  --      6.3000                 6.3424                 6.3291
 IR Inten    --     44.1639                72.2711                46.7507

                     85                     86                     87
                      A                      A                      A
 Frequencies --   3130.3333              3135.5747              3139.1455
 Red. masses --      1.0955                 1.0952                 1.0999
 Frc consts  --      6.3249                 6.3440                 6.3857
 IR Inten    --     42.1151                42.7348                43.3616

 - Thermochemistry -
 -------------------
 Temperature   298.150 Kelvin.  Pressure   1.00000 Atm.
 Atom     1 has atomic number  6 and mass  12.00000

 Molecular mass:   186.12559 amu.
 Principal axes and moments of inertia in atomic units:
                           1         2         3
     Eigenvalues --   912.181524582.457114919.93728
           X            0.99983  -0.01832   0.00087
           Y            0.01832   0.99983  -0.00048
           Z           -0.00086   0.00050   1.00000
 This molecule is an asymmetric top.
 Rotational symmetry number  1.
 Warning -- assumption of classical behavior for rotation
           may cause significant error
 Rotational temperatures (Kelvin)      0.09495     0.01890     0.01760
 Rotational constants (GHZ):           1.97849     0.39384     0.36682
 Zero-point vibrational energy     736472.4 (Joules/Mol)
                                  176.02114 (Kcal/Mol)
 Warning -- explicit consideration of  18 degrees of freedom as
           vibrations may cause significant error
 Vibrational temperatures:     29.64    58.63   110.80   200.70   261.81
          (Kelvin)            332.73   357.56   400.75   485.90   528.70
                              599.76   612.97   648.76   667.20   710.10
                              744.43   778.36   872.38  1043.01  1194.03
                             1199.11  1219.25  1261.30  1284.23  1295.15
                             1302.37  1347.68  1356.69  1412.62  1437.72
                             1471.60  1506.13  1519.81  1537.55  1547.72
                             1625.27  1650.75  1658.40  1672.21  1690.45
                             1717.07  1740.37  1745.29  1788.82  1797.36
                             1851.65  1876.36  1898.66  1914.55  1935.35
                             1948.94  1958.66  1988.12  1990.46  2000.30
                             2007.28  2019.10  2027.90  2038.99  2060.31
                             2084.24  2125.10  2131.02  2134.55  2150.30
                             2152.59  2160.40  2175.95  2179.05  4341.84
                             4348.73  4363.55  4402.10  4404.39  4411.71
                             4415.75  4418.21  4418.89  4441.28  4479.12
                             4480.23  4482.08  4490.67  4491.26  4503.85
                             4511.39  4516.53

 Zero-point correction=                           0.280508 (Hartree/Particle)
 Thermal correction to Energy=                    0.292379
 Thermal correction to Enthalpy=                  0.293323
 Thermal correction to Gibbs Free Energy=         0.241061
 Sum of electronic and zero-point Energies=           -617.219714
 Sum of electronic and thermal Energies=              -617.207843
 Sum of electronic and thermal Enthalpies=            -617.206898
 Sum of electronic and thermal Free Energies=         -617.259161

                     E (Thermal)             CV                S
                      KCal/Mol        Cal/Mol-Kelvin    Cal/Mol-Kelvin
 Total                  183.471             46.783            109.995
 Electronic               0.000              0.000              0.000
 Translational            0.889              2.981             41.570
 Rotational               0.889              2.981             31.398
 Vibrational            181.693             40.821             37.028
 Vibration     1          0.593              1.986              6.575
 Vibration     2          0.594              1.981              5.222
 Vibration     3          0.599              1.964              3.966
 Vibration     4          0.615              1.914              2.811
 Vibration     5          0.630              1.864              2.308
 Vibration     6          0.653              1.793              1.869
 Vibration     7          0.662              1.765              1.741
 Vibration     8          0.679              1.713              1.543
 Vibration     9          0.718              1.600              1.223
 Vibration    10          0.740              1.539              1.090
 Vibration    11          0.780              1.434              0.903
 Vibration    12          0.788              1.414              0.872
 Vibration    13          0.810              1.359              0.793
 Vibration    14          0.821              1.331              0.755
 Vibration    15          0.849              1.264              0.674
 Vibration    16          0.872              1.211              0.616
 Vibration    17          0.896              1.159              0.563
 Vibration    18          0.965              1.018              0.439

 Optimization completed.
    -- Stationary point found.
 Normal termination of Gaussian 16 at Sun Nov  4 22:55:35 2018.
