 Gaussian 16, Revision A.03,
 Gaussian 16:  ES64L-G16RevA.03 25-Dec-2016

 ----------------------------------------------------------------------
 #M062X/6-311++G(2d,2p) opt=ModRedundant freq=noraman SCRF=(Solvent=Wat
 er)
 ----------------------------------------------------------------------

 ----------------------------
 L_a1-e4_D_PHI.inp_extract_22
 ----------------------------
 Symbolic Z-matrix:
 Charge =  0 Multiplicity = 1

 SCF Done:  E(RM062X) =  -617.500466762     A.U. after   12 cycles
 SCF Done:  E(RM062X) =  -617.502100023     A.U. after   10 cycles
 SCF Done:  E(RM062X) =  -617.502259383     A.U. after   10 cycles
 SCF Done:  E(RM062X) =  -617.502281759     A.U. after    9 cycles
 SCF Done:  E(RM062X) =  -617.502283864     A.U. after    8 cycles
 SCF Done:  E(RM062X) =  -617.502284159     A.U. after    6 cycles
 Optimization completed.
    -- Stationary point found.
 Normal termination of Gaussian 16 at Sun Nov  4 21:53:43 2018.

 ----------------------------------------------------------------------
 #N Geom=AllCheck Guess=TCheck SCRF=Check GenChk RM062X/6-311++G(2d,2p)
  Freq
 ----------------------------------------------------------------------

 Structure from the checkpoint file:  "L_a1-e4_D_PHI.inp_extract_22.chk"
 ----------------------------
 L_a1-e4_D_PHI.inp_extract_22
 ----------------------------
 Charge =  0 Multiplicity = 1

                         Standard orientation:
 ---------------------------------------------------------------------
 Center     Atomic      Atomic             Coordinates (Angstroms)
 Number     Number       Type             X           Y           Z
 ---------------------------------------------------------------------
      1          6           0        2.364567    1.173010   -0.880332
      2          8           0        1.671505    1.282695    0.363303
      3          6           0        3.147130   -1.105274   -0.246057
      4          8           0       -3.283775   -1.142607   -0.269397
      5          6           0        1.214289    0.046874    0.865775
      6          6           0        2.365955   -0.929735    1.055030
      7          6           0       -3.060756    1.165374    0.452570
      8          8           0        0.271677   -0.532406   -0.006786
      9          6           0       -1.549080    1.094839    0.233856
     10          6           0       -3.766115    0.181171   -0.466256
     11          6           0       -1.085009   -0.350120    0.367037
     12          6           0       -1.902348   -1.245700   -0.552838
     13          6           0        3.578050    0.265732   -0.764036
     14          1           0        1.678950    0.792988   -1.642420
     15          1           0        2.647569    2.188613   -1.147766
     16          1           0        2.512946   -1.593276   -0.989242
     17          1           0        4.010774   -1.748957   -0.082950
     18          1           0        0.740178    0.283283    1.819614
     19          1           0        3.022461   -0.524429    1.827551
     20          1           0        1.966186   -1.876588    1.416188
     21          1           0       -3.430855    2.172921    0.262722
     22          1           0       -3.300655    0.915947    1.488470
     23          1           0       -1.299344    1.438471   -0.774179
     24          1           0       -1.018269    1.734821    0.938660
     25          1           0       -4.835519    0.147637   -0.270034
     26          1           0       -3.613173    0.467669   -1.513922
     27          1           0       -1.228431   -0.689979    1.399620
     28          1           0       -1.620441   -2.287798   -0.415937
     29          1           0       -1.705037   -0.960627   -1.593974
     30          1           0        4.063611    0.186577   -1.737163
     31          1           0        4.293683    0.714258   -0.070695
 ---------------------------------------------------------------------

 SCF Done:  E(RM062X) =  -617.502284159     A.U. after    1 cycles

 The electronic state is 1-A.
 Alpha  occ. eigenvalues --  -19.63271 -19.63213 -19.62798 -10.63553 -10.58910
 Alpha  occ. eigenvalues --  -10.58163 -10.58082 -10.57672 -10.53287 -10.53130
 Alpha  occ. eigenvalues --  -10.53002 -10.52964 -10.52823  -1.19976  -1.16732
 Alpha  occ. eigenvalues --   -1.13555  -0.90903  -0.89662  -0.87460  -0.84480
 Alpha  occ. eigenvalues --   -0.74872  -0.73775  -0.72642  -0.71237  -0.66109
 Alpha  occ. eigenvalues --   -0.63798  -0.60276  -0.58450  -0.57278  -0.55093
 Alpha  occ. eigenvalues --   -0.54635  -0.53351  -0.52202  -0.50397  -0.50005
 Alpha  occ. eigenvalues --   -0.48461  -0.47628  -0.46132  -0.45333  -0.44050
 Alpha  occ. eigenvalues --   -0.43871  -0.42890  -0.41201  -0.40294  -0.39827
 Alpha  occ. eigenvalues --   -0.38269  -0.37758  -0.36846  -0.34621  -0.33086
 Alpha  occ. eigenvalues --   -0.32196
 Alpha virt. eigenvalues --   -0.00049   0.00752   0.00777   0.01036   0.02178
 Alpha virt. eigenvalues --    0.02466   0.02636   0.03356   0.03496   0.04416
 Alpha virt. eigenvalues --    0.04644   0.04719   0.05573   0.05919   0.06908

 Mulliken charges:
               1
     1  C   -0.101958
     2  O   -0.276172
     3  C   -0.292347
     4  O   -0.346135
     5  C    0.017456
     6  C   -0.466297
     7  C   -0.432512
     8  O   -0.282960
     9  C   -0.170571
    10  C   -0.214091
    11  C   -0.143983
    12  C   -0.252951
    13  C   -0.414209
    14  H    0.146683
    15  H    0.202787
    16  H    0.175301
    17  H    0.179322
    18  H    0.244267
    19  H    0.190200
    20  H    0.179674
    21  H    0.171790
    22  H    0.170528
    23  H    0.223482
    24  H    0.179952
    25  H    0.208637
    26  H    0.138569
    27  H    0.243657
    28  H    0.198770
    29  H    0.188768
    30  H    0.171046
    31  H    0.163297
 Sum of Mulliken charges =  -0.00000

 Dipole moment (field-independent basis, Debye):
    X=              0.9668    Y=              0.8048    Z=              0.0123  Tot=              1.2580
 Quadrupole moment (field-independent basis, Debye-Ang):
   XX=            -77.8957   YY=            -83.7573   ZZ=            -76.9992
   XY=             -9.1145   XZ=             -1.0501   YZ=             -2.6552

  Exact polarizability: 174.715  -2.171 156.828  -2.576  -1.770 153.706
 Approx polarizability: 146.522   0.214 142.107  -2.111  -0.655 143.098

                      1                      2                      3
                      A                      A                      A
 Frequencies --     27.7825                54.8211                81.8395
 Red. masses --      3.9385                 3.5799                 3.6628
 Frc consts  --      0.0018                 0.0063                 0.0145
 IR Inten    --      2.1023                 1.1389                 2.0118

                      4                      5                      6
                      A                      A                      A
 Frequencies --    137.9448               195.6025               240.5413
 Red. masses --      3.1182                 2.9848                 3.1140
 Frc consts  --      0.0350                 0.0673                 0.1062
 IR Inten    --      2.6388                 1.8186                 7.4203

                      7                      8                      9
                      A                      A                      A
 Frequencies --    250.4840               262.0413               339.4331
 Red. masses --      1.9602                 2.9421                 2.6539
 Frc consts  --      0.0725                 0.1190                 0.1802
 IR Inten    --      3.4891                 0.2343                 6.4404

                     10                     11                     12
                      A                      A                      A
 Frequencies --    365.1909               400.6969               434.6970
 Red. masses --      2.0525                 2.3429                 3.4055
 Frc consts  --      0.1613                 0.2216                 0.3791
 IR Inten    --      7.3898                13.6601                 5.4632

                     13                     14                     15
                      A                      A                      A
 Frequencies --    457.1682               462.5069               490.9519
 Red. masses --      3.7863                 3.5488                 2.2558
 Frc consts  --      0.4663                 0.4473                 0.3204
 IR Inten    --      3.3517                 2.4985                 0.4903

                     16                     17                     18
                      A                      A                      A
 Frequencies --    532.3881               572.4630               600.7039
 Red. masses --      2.1145                 3.2944                 2.4843
 Frc consts  --      0.3531                 0.6361                 0.5282
 IR Inten    --      3.6322                23.6841                 7.4095

                     19                     20                     21
                      A                      A                      A
 Frequencies --    720.5816               827.6031               836.7894
 Red. masses --      2.8624                 2.2037                 1.5459
 Frc consts  --      0.8757                 0.8893                 0.6378
 IR Inten    --      8.3450                 1.5916                 1.4717

                     22                     23                     24
                      A                      A                      A
 Frequencies --    847.1732               877.4235               895.7067
 Red. masses --      3.1924                 1.4000                 2.2664
 Frc consts  --      1.3499                 0.6350                 1.0713
 IR Inten    --      4.9891                11.8434                33.5496

                     25                     26                     27
                      A                      A                      A
 Frequencies --    897.3504               904.5582               936.3777
 Red. masses --      2.4965                 2.4587                 1.6476
 Frc consts  --      1.1844                 1.1853                 0.8511
 IR Inten    --     12.0371                14.7338                25.6548

                     28                     29                     30
                      A                      A                      A
 Frequencies --    942.3025               982.1477               998.0936
 Red. masses --      2.1537                 2.4024                 1.4344
 Frc consts  --      1.1267                 1.3653                 0.8419
 IR Inten    --     35.8589                22.2712                18.5688

                     31                     32                     33
                      A                      A                      A
 Frequencies --   1025.0358              1045.9031              1057.2985
 Red. masses --      2.2121                 2.2424                 1.7064
 Frc consts  --      1.3694                 1.4452                 1.1239
 IR Inten    --     78.7556                60.8531                38.5265

                     34                     35                     36
                      A                      A                      A
 Frequencies --   1065.5108              1074.2192              1124.2756
 Red. masses --      1.4793                 2.4114                 4.3345
 Frc consts  --      0.9895                 1.6395                 3.2280
 IR Inten    --     63.4992                27.6259               311.1797

                     37                     38                     39
                      A                      A                      A
 Frequencies --   1149.5006              1154.0324              1169.2145
 Red. masses --      2.3522                 2.8333                 3.8924
 Frc consts  --      1.8312                 2.2232                 3.1352
 IR Inten    --     30.4959                95.2061               194.1151

                     40                     41                     42
                      A                      A                      A
 Frequencies --   1177.6142              1188.4388              1209.7284
 Red. masses --      2.5001                 2.6084                 1.5038
 Frc consts  --      2.0428                 2.1706                 1.2967
 IR Inten    --     13.4148                59.4813                44.7108

                     43                     44                     45
                      A                      A                      A
 Frequencies --   1211.9794              1234.8368              1248.3430
 Red. masses --      1.4093                 1.6920                 1.4823
 Frc consts  --      1.2197                 1.5201                 1.3610
 IR Inten    --     16.3597                62.5669                20.1516

                     46                     47                     48
                      A                      A                      A
 Frequencies --   1287.3146              1301.0752              1318.6266
 Red. masses --      1.2178                 1.1811                 1.1514
 Frc consts  --      1.1890                 1.1780                 1.1796
 IR Inten    --     15.6022                15.6307                 7.5777

                     49                     50                     51
                      A                      A                      A
 Frequencies --   1330.2723              1343.4050              1350.1194
 Red. masses --      1.2785                 1.2372                 1.2377
 Frc consts  --      1.3330                 1.3155                 1.3292
 IR Inten    --      8.8743                 2.3590                21.9294

                     52                     53                     54
                      A                      A                      A
 Frequencies --   1359.8328              1382.0270              1385.5575
 Red. masses --      1.3233                 1.4366                 1.4882
 Frc consts  --      1.4418                 1.6166                 1.6832
 IR Inten    --      4.6248                 8.2360                 1.5551

                     55                     56                     57
                      A                      A                      A
 Frequencies --   1390.0234              1397.3323              1402.1485
 Red. masses --      1.6415                 1.3300                 1.5421
 Frc consts  --      1.8687                 1.5301                 1.7862
 IR Inten    --      5.7254                 4.9164                25.8559

                     58                     59                     60
                      A                      A                      A
 Frequencies --   1407.7638              1419.0242              1429.1854
 Red. masses --      1.3866                 1.3701                 1.4151
 Frc consts  --      1.6191                 1.6255                 1.7030
 IR Inten    --     25.9802                21.2451                 3.1236

                     61                     62                     63
                      A                      A                      A
 Frequencies --   1447.9920              1477.3901              1481.2952
 Red. masses --      1.3552                 1.1064                 1.0934
 Frc consts  --      1.6741                 1.4229                 1.4136
 IR Inten    --      8.6986                 4.5385                 7.5234

                     64                     65                     66
                      A                      A                      A
 Frequencies --   1483.2491              1493.3676              1495.6548
 Red. masses --      1.0857                 1.1158                 1.1069
 Frc consts  --      1.4072                 1.4661                 1.4588
 IR Inten    --      7.9656                10.6104                14.4658

                     67                     68                     69
                      A                      A                      A
 Frequencies --   1501.1252              1511.3946              1514.0453
 Red. masses --      1.0873                 1.0941                 1.1014
 Frc consts  --      1.4436                 1.4725                 1.4875
 IR Inten    --      0.6575                 4.1136                 8.8368

                     70                     71                     72
                      A                      A                      A
 Frequencies --   3017.0581              3021.3899              3029.3578
 Red. masses --      1.0719                 1.0706                 1.0796
 Frc consts  --      5.7487                 5.7584                 5.8375
 IR Inten    --     17.7658                75.8134                83.3992

                     73                     74                     75
                      A                      A                      A
 Frequencies --   3057.1113              3058.8878              3063.8231
 Red. masses --      1.0686                 1.0658                 1.0627
 Frc consts  --      5.8841                 5.8758                 5.8773
 IR Inten    --     40.5002                32.7341                46.8290

                     76                     77                     78
                      A                      A                      A
 Frequencies --   3069.7028              3070.6866              3074.8305
 Red. masses --      1.0621                 1.0634                 1.0624
 Frc consts  --      5.8964                 5.9078                 5.9181
 IR Inten    --     44.9863                27.2419                21.2468

                     79                     80                     81
                      A                      A                      A
 Frequencies --   3093.3501              3113.6363              3116.7761
 Red. masses --      1.0858                 1.0974                 1.0976
 Frc consts  --      6.1214                 6.2683                 6.2818
 IR Inten    --     65.4551                36.0369                31.0765

                     82                     83                     84
                      A                      A                      A
 Frequencies --   3118.2735              3120.7958              3127.4573
 Red. masses --      1.1021                 1.1027                 1.1036
 Frc consts  --      6.3141                 6.3277                 6.3601
 IR Inten    --     65.2132                55.8142                45.3401

                     85                     86                     87
                      A                      A                      A
 Frequencies --   3132.7778              3134.2404              3135.0652
 Red. masses --      1.0945                 1.0996                 1.0957
 Frc consts  --      6.3289                 6.3642                 6.3448
 IR Inten    --     48.2630                49.7466                31.7196

 - Thermochemistry -
 -------------------
 Temperature   298.150 Kelvin.  Pressure   1.00000 Atm.
 Atom     1 has atomic number  6 and mass  12.00000

 Molecular mass:   186.12559 amu.
 Principal axes and moments of inertia in atomic units:
                           1         2         3
     Eigenvalues --   927.121984442.484484789.03657
           X            0.99987  -0.01561  -0.00301
           Y            0.01554   0.99960  -0.02354
           Z            0.00338   0.02349   0.99972
 This molecule is an asymmetric top.
 Rotational symmetry number  1.
 Warning -- assumption of classical behavior for rotation
           may cause significant error
 Rotational temperatures (Kelvin)      0.09342     0.01950     0.01809
 Rotational constants (GHZ):           1.94661     0.40625     0.37685
 Zero-point vibrational energy     736742.6 (Joules/Mol)
                                  176.08570 (Kcal/Mol)
 Warning -- explicit consideration of  18 degrees of freedom as
           vibrations may cause significant error
 Vibrational temperatures:     39.97    78.88   117.75   198.47   281.43
          (Kelvin)            346.09   360.39   377.02   488.37   525.43
                              576.51   625.43   657.76   665.44   706.37
                              765.99   823.65   864.28  1036.76  1190.74
                             1203.95  1218.89  1262.42  1288.72  1291.09
                             1301.46  1347.24  1355.76  1413.09  1436.03
                             1474.80  1504.82  1521.22  1533.03  1545.56
                             1617.58  1653.88  1660.40  1682.24  1694.32
                             1709.90  1740.53  1743.77  1776.65  1796.09
                             1852.16  1871.96  1897.21  1913.97  1932.86
                             1942.52  1956.50  1988.43  1993.51  1999.93
                             2010.45  2017.38  2025.46  2041.66  2056.28
                             2083.34  2125.63  2131.25  2134.06  2148.62
                             2151.91  2159.78  2174.56  2178.37  4340.87
                             4347.11  4358.57  4398.50  4401.06  4408.16
                             4416.62  4418.03  4424.00  4450.64  4479.83
                             4484.35  4486.50  4490.13  4499.71  4507.37
                             4509.47  4510.66

 Zero-point correction=                           0.280610 (Hartree/Particle)
 Thermal correction to Energy=                    0.292395
 Thermal correction to Enthalpy=                  0.293339
 Thermal correction to Gibbs Free Energy=         0.241786
 Sum of electronic and zero-point Energies=           -617.221674
 Sum of electronic and thermal Energies=              -617.209889
 Sum of electronic and thermal Enthalpies=            -617.208945
 Sum of electronic and thermal Free Energies=         -617.260499

                     E (Thermal)             CV                S
                      KCal/Mol        Cal/Mol-Kelvin    Cal/Mol-Kelvin
 Total                  183.481             46.710            108.504
 Electronic               0.000              0.000              0.000
 Translational            0.889              2.981             41.570
 Rotational               0.889              2.981             31.356
 Vibrational            181.703             40.748             35.578
 Vibration     1          0.593              1.984              5.982
 Vibration     2          0.596              1.976              4.635
 Vibration     3          0.600              1.962              3.846
 Vibration     4          0.614              1.915              2.832
 Vibration     5          0.636              1.846              2.174
 Vibration     6          0.658              1.778              1.799
 Vibration     7          0.663              1.762              1.727
 Vibration     8          0.669              1.742              1.648
 Vibration     9          0.719              1.597              1.215
 Vibration    10          0.738              1.544              1.100
 Vibration    11          0.767              1.469              0.960
 Vibration    12          0.795              1.395              0.843
 Vibration    13          0.815              1.345              0.774
 Vibration    14          0.820              1.333              0.759
 Vibration    15          0.847              1.270              0.681
 Vibration    16          0.887              1.178              0.582
 Vibration    17          0.929              1.091              0.500
 Vibration    18          0.959              1.030              0.448

 Optimization completed.
    -- Stationary point found.
 Normal termination of Gaussian 16 at Sun Nov  4 22:48:06 2018.
