 Gaussian 16, Revision A.03,
 Gaussian 16:  ES64L-G16RevA.03 25-Dec-2016

 ----------------------------------------------------------------------
 #M062X/6-311++G(2d,2p) opt=ModRedundant freq=noraman SCRF=(Solvent=Wat
 er)
 ----------------------------------------------------------------------

 ---------------------------
 L_a1-e4_D_PHI.inp_extract_4
 ---------------------------
 Symbolic Z-matrix:
 Charge =  0 Multiplicity = 1

 SCF Done:  E(RM062X) =  -617.492497730     A.U. after   12 cycles
 SCF Done:  E(RM062X) =  -617.493576524     A.U. after   11 cycles
 SCF Done:  E(RM062X) =  -617.493805830     A.U. after   11 cycles
 SCF Done:  E(RM062X) =  -617.494258281     A.U. after   10 cycles
 SCF Done:  E(RM062X) =  -617.494309794     A.U. after    9 cycles
 SCF Done:  E(RM062X) =  -617.494334559     A.U. after    9 cycles
 SCF Done:  E(RM062X) =  -617.494362002     A.U. after   10 cycles
 SCF Done:  E(RM062X) =  -617.494374507     A.U. after    9 cycles
 SCF Done:  E(RM062X) =  -617.494376216     A.U. after    8 cycles
 SCF Done:  E(RM062X) =  -617.494377183     A.U. after    8 cycles
 SCF Done:  E(RM062X) =  -617.494376310     A.U. after    8 cycles
 SCF Done:  E(RM062X) =  -617.494376878     A.U. after    7 cycles
 Optimization completed.
    -- Stationary point found.
 Normal termination of Gaussian 16 at Sun Nov  4 22:21:46 2018.

 ----------------------------------------------------------------------
 #N Geom=AllCheck Guess=TCheck SCRF=Check GenChk RM062X/6-311++G(2d,2p)
  Freq
 ----------------------------------------------------------------------

 Structure from the checkpoint file:  "L_a1-e4_D_PHI.inp_extract_4.chk"
 ---------------------------
 L_a1-e4_D_PHI.inp_extract_4
 ---------------------------
 Charge =  0 Multiplicity = 1

                         Standard orientation:
 ---------------------------------------------------------------------
 Center     Atomic      Atomic             Coordinates (Angstroms)
 Number     Number       Type             X           Y           Z
 ---------------------------------------------------------------------
      1          6           0        1.921425   -1.030346    1.138806
      2          8           0        1.416177   -1.287401   -0.179078
      3          6           0        3.016539    1.048023    0.357158
      4          8           0       -2.809174   -1.247799   -0.009250
      5          6           0        1.368443   -0.211652   -1.075440
      6          6           0        2.597144    0.682074   -1.060482
      7          6           0       -2.974633    0.978693    0.951809
      8          8           0        0.208251    0.611660   -0.933405
      9          6           0       -1.722695    1.410370    0.188173
     10          6           0       -3.679958   -0.145475    0.209089
     11          6           0       -0.856479    0.195409   -0.096352
     12          6           0       -1.688597   -0.878601   -0.793319
     13          6           0        3.218775   -0.245521    1.138803
     14          1           0        1.178318   -0.482784    1.723896
     15          1           0        2.044611   -2.013672    1.586916
     16          1           0        2.238314    1.649081    0.835191
     17          1           0        3.926421    1.646086    0.339503
     18          1           0        1.283316   -0.696792   -2.050480
     19          1           0        3.408865    0.137692   -1.547543
     20          1           0        2.377297    1.560203   -1.665665
     21          1           0       -3.658563    1.818363    1.076367
     22          1           0       -2.700567    0.625932    1.948399
     23          1           0       -2.006744    1.861987   -0.766377
     24          1           0       -1.150825    2.150622    0.748092
     25          1           0       -4.523225   -0.530133    0.778764
     26          1           0       -4.049899    0.217479   -0.757828
     27          1           0       -0.492234   -0.213117    0.844533
     28          1           0       -1.096923   -1.778254   -0.951820
     29          1           0       -2.018006   -0.492400   -1.766835
     30          1           0        3.506061   -0.052008    2.172382
     31          1           0        4.011964   -0.837802    0.676894
 ---------------------------------------------------------------------

 SCF Done:  E(RM062X) =  -617.494376878     A.U. after    1 cycles

 The electronic state is 1-A.
 Alpha  occ. eigenvalues --  -19.63868 -19.63012 -19.62745 -10.63814 -10.58473
 Alpha  occ. eigenvalues --  -10.58352 -10.57984 -10.57611 -10.53234 -10.53224
 Alpha  occ. eigenvalues --  -10.53178 -10.53157 -10.53123  -1.19745  -1.16464
 Alpha  occ. eigenvalues --   -1.13399  -0.91245  -0.90218  -0.87352  -0.84436
 Alpha  occ. eigenvalues --   -0.74909  -0.74285  -0.73327  -0.70457  -0.65660
 Alpha  occ. eigenvalues --   -0.64304  -0.59511  -0.58824  -0.57550  -0.55569
 Alpha  occ. eigenvalues --   -0.54394  -0.53068  -0.52525  -0.50886  -0.50319
 Alpha  occ. eigenvalues --   -0.48023  -0.47095  -0.45909  -0.45660  -0.44774
 Alpha  occ. eigenvalues --   -0.43991  -0.43199  -0.40511  -0.39992  -0.39458
 Alpha  occ. eigenvalues --   -0.38980  -0.37664  -0.36715  -0.34823  -0.34167
 Alpha  occ. eigenvalues --   -0.31087
 Alpha virt. eigenvalues --   -0.00153   0.00707   0.00891   0.01098   0.02186
 Alpha virt. eigenvalues --    0.02523   0.02639   0.03341   0.03486   0.04520
 Alpha virt. eigenvalues --    0.04673   0.04923   0.05638   0.05690   0.06980

 Mulliken charges:
               1
     1  C   -0.156660
     2  O   -0.234087
     3  C   -0.258872
     4  O   -0.303960
     5  C   -0.150842
     6  C   -0.365077
     7  C   -0.356831
     8  O   -0.259321
     9  C   -0.316826
    10  C   -0.140790
    11  C   -0.162108
    12  C   -0.295210
    13  C   -0.382334
    14  H    0.140306
    15  H    0.191480
    16  H    0.158054
    17  H    0.193283
    18  H    0.234957
    19  H    0.191768
    20  H    0.184280
    21  H    0.187011
    22  H    0.158707
    23  H    0.205018
    24  H    0.152832
    25  H    0.210976
    26  H    0.135693
    27  H    0.285975
    28  H    0.212564
    29  H    0.190578
    30  H    0.180203
    31  H    0.169233
 Sum of Mulliken charges =  -0.00000

 Dipole moment (field-independent basis, Debye):
    X=              1.5753    Y=              2.1508    Z=              1.3816  Tot=              3.0027
 Quadrupole moment (field-independent basis, Debye-Ang):
   XX=            -71.7691   YY=            -85.9725   ZZ=            -77.1342
   XY=             -5.5437   XZ=              0.9590   YZ=              0.8258

  Exact polarizability: 173.070  -1.463 154.492  -2.345  -0.894 158.459
 Approx polarizability: 145.724  -2.312 142.048  -1.854  -1.640 145.073

 ******    1 imaginary frequencies (negative Signs) ******

                      1                      2                      3
                      A                      A                      A
 Frequencies --    -54.6556                43.8676                92.5479
 Red. masses --      3.8508                 3.6218                 3.4679
 Frc consts  --      0.0068                 0.0041                 0.0175
 IR Inten    --      2.5929                 1.7010                 0.6248

                      4                      5                      6
                      A                      A                      A
 Frequencies --    130.9558               196.8255               208.1007
 Red. masses --      3.1802                 2.6483                 3.5043
 Frc consts  --      0.0321                 0.0604                 0.0894
 IR Inten    --      2.8512                 0.1172                13.2224

                      7                      8                      9
                      A                      A                      A
 Frequencies --    255.2220               277.6579               335.5347
 Red. masses --      2.0971                 2.7738                 3.5730
 Frc consts  --      0.0805                 0.1260                 0.2370
 IR Inten    --      2.2469                 5.1825                17.5315

                     10                     11                     12
                      A                      A                      A
 Frequencies --    360.6694               374.3376               434.5244
 Red. masses --      1.8748                 2.5644                 3.2993
 Frc consts  --      0.1437                 0.2117                 0.3670
 IR Inten    --      2.5653                20.6846                 3.9479

                     13                     14                     15
                      A                      A                      A
 Frequencies --    445.5140               458.4781               480.9013
 Red. masses --      3.3617                 3.5196                 2.1834
 Frc consts  --      0.3931                 0.4359                 0.2975
 IR Inten    --      2.7352                 0.7933                 0.4868

                     16                     17                     18
                      A                      A                      A
 Frequencies --    526.7676               570.5919               621.3478
 Red. masses --      2.4829                 2.2535                 2.8129
 Frc consts  --      0.4059                 0.4323                 0.6399
 IR Inten    --      0.9890                 7.9397                 1.2663

                     19                     20                     21
                      A                      A                      A
 Frequencies --    720.3780               812.7766               835.5071
 Red. masses --      3.2458                 2.2300                 2.0359
 Frc consts  --      0.9924                 0.8680                 0.8373
 IR Inten    --      5.2190                 1.2164                 2.0751

                     22                     23                     24
                      A                      A                      A
 Frequencies --    844.2353               878.1857               887.0461
 Red. masses --      2.2168                 1.4027                 2.3487
 Frc consts  --      0.9309                 0.6374                 1.0889
 IR Inten    --      3.5429                 7.6049                15.5881

                     25                     26                     27
                      A                      A                      A
 Frequencies --    902.7596               905.3779               927.3115
 Red. masses --      2.3229                 2.5225                 1.7561
 Frc consts  --      1.1154                 1.2183                 0.8897
 IR Inten    --      7.5020                30.7308                19.1553

                     28                     29                     30
                      A                      A                      A
 Frequencies --    945.3633               972.3577               991.2557
 Red. masses --      2.0904                 2.1246                 1.5428
 Frc consts  --      1.1007                 1.1835                 0.8932
 IR Inten    --     23.3474               100.1704                13.1019

                     31                     32                     33
                      A                      A                      A
 Frequencies --   1015.3797              1044.7715              1054.5019
 Red. masses --      2.4044                 2.3022                 1.7189
 Frc consts  --      1.4606                 1.4806                 1.1262
 IR Inten    --     13.9151                43.4641                34.5742

                     34                     35                     36
                      A                      A                      A
 Frequencies --   1064.8550              1077.0087              1114.8563
 Red. masses --      1.5394                 2.1287                 3.3764
 Frc consts  --      1.0285                 1.4548                 2.4725
 IR Inten    --     89.4805                13.5227               190.8362

                     37                     38                     39
                      A                      A                      A
 Frequencies --   1146.5112              1152.1237              1153.9873
 Red. masses --      2.7562                 2.3310                 2.7922
 Frc consts  --      2.1346                 1.8230                 2.1908
 IR Inten    --    169.6122                55.9157                15.5645

                     40                     41                     42
                      A                      A                      A
 Frequencies --   1190.8095              1192.5726              1208.1595
 Red. masses --      2.0297                 3.4314                 1.3516
 Frc consts  --      1.6958                 2.8753                 1.1623
 IR Inten    --      2.0786               235.3264                13.4130

                     43                     44                     45
                      A                      A                      A
 Frequencies --   1216.9585              1241.6569              1251.4205
 Red. masses --      1.6102                 1.9132                 1.5129
 Frc consts  --      1.4050                 1.7378                 1.3960
 IR Inten    --     36.1570               107.1490                33.9417

                     46                     47                     48
                      A                      A                      A
 Frequencies --   1292.5361              1301.8758              1324.3259
 Red. masses --      1.2234                 1.1839                 1.1468
 Frc consts  --      1.2042                 1.1823                 1.1850
 IR Inten    --     24.9213                17.6865                 6.5491

                     49                     50                     51
                      A                      A                      A
 Frequencies --   1328.3327              1344.5556              1357.8829
 Red. masses --      1.2927                 1.2730                 1.2217
 Frc consts  --      1.3439                 1.3559                 1.3272
 IR Inten    --      5.5434                 3.2544                 8.4737

                     52                     53                     54
                      A                      A                      A
 Frequencies --   1360.8875              1382.6936              1388.2277
 Red. masses --      1.3762                 1.4433                 1.5581
 Frc consts  --      1.5016                 1.6258                 1.7692
 IR Inten    --      4.3969                 2.4439                 5.6291

                     55                     56                     57
                      A                      A                      A
 Frequencies --   1388.7054              1396.3555              1406.0827
 Red. masses --      1.4791                 1.7586                 1.2977
 Frc consts  --      1.6806                 2.0202                 1.5116
 IR Inten    --      3.8046                22.2759                12.7381

                     58                     59                     60
                      A                      A                      A
 Frequencies --   1414.8141              1419.1745              1436.3823
 Red. masses --      1.3548                 1.3296                 1.3473
 Frc consts  --      1.5978                 1.5777                 1.6378
 IR Inten    --      5.5236                 5.3671                 2.2044

                     61                     62                     63
                      A                      A                      A
 Frequencies --   1451.7891              1476.6688              1481.4256
 Red. masses --      1.3181                 1.1018                 1.0918
 Frc consts  --      1.6369                 1.4155                 1.4117
 IR Inten    --     15.8426                 5.0130                 7.8136

                     64                     65                     66
                      A                      A                      A
 Frequencies --   1486.0699              1496.4060              1497.3802
 Red. masses --      1.0865                 1.1129                 1.1165
 Frc consts  --      1.4137                 1.4683                 1.4749
 IR Inten    --     11.4889                 3.2976                21.5763

                     67                     68                     69
                      A                      A                      A
 Frequencies --   1500.8172              1514.1136              1515.6456
 Red. masses --      1.0834                 1.1002                 1.0947
 Frc consts  --      1.4377                 1.4860                 1.4817
 IR Inten    --      0.5760                 5.9714                 6.0717

                     70                     71                     72
                      A                      A                      A
 Frequencies --   3012.6814              3018.9455              3056.2879
 Red. masses --      1.0694                 1.0705                 1.0707
 Frc consts  --      5.7185                 5.7482                 5.8927
 IR Inten    --     55.3369                88.1460                65.6612

                     73                     74                     75
                      A                      A                      A
 Frequencies --   3058.1886              3058.9543              3061.3362
 Red. masses --      1.0687                 1.0652                 1.0785
 Frc consts  --      5.8889                 5.8727                 5.9550
 IR Inten    --     40.7201                11.9780                19.1009

                     76                     77                     78
                      A                      A                      A
 Frequencies --   3068.8095              3070.0094              3078.9708
 Red. masses --      1.0616                 1.0622                 1.0675
 Frc consts  --      5.8904                 5.8983                 5.9626
 IR Inten    --     45.7661                33.3069                76.7421

                     79                     80                     81
                      A                      A                      A
 Frequencies --   3110.1764              3118.9125              3119.5295
 Red. masses --      1.0957                 1.0981                 1.0997
 Frc consts  --      6.2450                 6.2934                 6.3054
 IR Inten    --     32.1756                35.7644                36.8873

                     82                     83                     84
                      A                      A                      A
 Frequencies --   3121.4487              3127.5984              3131.6116
 Red. masses --      1.1000                 1.0876                 1.0944
 Frc consts  --      6.3148                 6.2683                 6.3236
 IR Inten    --     62.3249                69.5692                45.0227

                     85                     86                     87
                      A                      A                      A
 Frequencies --   3132.7058              3136.2021              3139.7570
 Red. masses --      1.1002                 1.0970                 1.0954
 Frc consts  --      6.3615                 6.3573                 6.3621
 IR Inten    --     28.5665                75.7539                13.2840

 - Thermochemistry -
 -------------------
 Temperature   298.150 Kelvin.  Pressure   1.00000 Atm.
 Atom     1 has atomic number  6 and mass  12.00000

 Molecular mass:   186.12559 amu.
 Principal axes and moments of inertia in atomic units:
                           1         2         3
     Eigenvalues --  1041.180214133.085804267.15158
           X            0.99998  -0.00547   0.00227
           Y            0.00541   0.99958   0.02839
           Z           -0.00242  -0.02838   0.99959
 This molecule is an asymmetric top.
 Rotational symmetry number  1.
 Warning -- assumption of classical behavior for rotation
           may cause significant error
 Rotational temperatures (Kelvin)      0.08319     0.02096     0.02030
 Rotational constants (GHZ):           1.73336     0.43666     0.42294
    1 imaginary frequencies ignored.
 Zero-point vibrational energy     736584.1 (Joules/Mol)
                                  176.04783 (Kcal/Mol)
 Warning -- explicit consideration of  16 degrees of freedom as
           vibrations may cause significant error
 Vibrational temperatures:     63.12   133.16   188.42   283.19   299.41
          (Kelvin)            367.21   399.49   482.76   518.92   538.59
                              625.18   641.00   659.65   691.91   757.90
                              820.95   893.98  1036.46  1169.40  1202.11
                             1214.67  1263.51  1276.26  1298.87  1302.64
                             1334.19  1360.17  1399.01  1426.20  1460.90
                             1503.19  1517.19  1532.09  1549.58  1604.03
                             1649.57  1657.65  1660.33  1713.31  1715.85
                             1738.27  1750.93  1786.47  1800.52  1859.67
                             1873.11  1905.41  1911.17  1934.52  1953.69
                             1958.01  1989.39  1997.35  1998.04  2009.04
                             2023.04  2035.60  2041.88  2066.63  2088.80
                             2124.60  2131.44  2138.12  2152.99  2154.40
                             2159.34  2178.47  2180.68  4334.58  4343.59
                             4397.32  4400.05  4401.15  4404.58  4415.33
                             4417.06  4429.95  4474.85  4487.42  4488.31
                             4491.07  4499.92  4505.69  4507.26  4512.30
                             4517.41

 Zero-point correction=                           0.280550 (Hartree/Particle)
 Thermal correction to Energy=                    0.291546
 Thermal correction to Enthalpy=                  0.292490
 Thermal correction to Gibbs Free Energy=         0.243509
 Sum of electronic and zero-point Energies=           -617.213827
 Sum of electronic and thermal Energies=              -617.202831
 Sum of electronic and thermal Enthalpies=            -617.201887
 Sum of electronic and thermal Free Energies=         -617.250868

                     E (Thermal)             CV                S
                      KCal/Mol        Cal/Mol-Kelvin    Cal/Mol-Kelvin
 Total                  182.948             44.901            103.090
 Electronic               0.000              0.000              0.000
 Translational            0.889              2.981             41.570
 Rotational               0.889              2.981             31.285
 Vibrational            181.170             38.939             30.235
 Vibration     1          0.595              1.980              5.076
 Vibration     2          0.602              1.955              3.605
 Vibration     3          0.612              1.922              2.932
 Vibration     4          0.636              1.844              2.163
 Vibration     5          0.641              1.828              2.060
 Vibration     6          0.666              1.754              1.694
 Vibration     7          0.679              1.715              1.548
 Vibration     8          0.717              1.605              1.233
 Vibration     9          0.735              1.553              1.119
 Vibration    10          0.745              1.525              1.062
 Vibration    11          0.795              1.395              0.844
 Vibration    12          0.805              1.371              0.809
 Vibration    13          0.817              1.342              0.771
 Vibration    14          0.837              1.292              0.708
 Vibration    15          0.882              1.191              0.594
 Vibration    16          0.927              1.095              0.503

 Optimization completed.
    -- Stationary point found.
 Normal termination of Gaussian 16 at Sun Nov  4 23:13:19 2018.
