 Gaussian 16, Revision A.03,
 Gaussian 16:  ES64L-G16RevA.03 25-Dec-2016

 ----------------------------------------------------------------------
 #M062X/6-311++G(2d,2p) opt=ModRedundant freq=noraman SCRF=(Solvent=Wat
 er)
 ----------------------------------------------------------------------

 ---------------------------
 D_1a_4a_L_PHI.inp_extract_1
 ---------------------------
 Symbolic Z-matrix:
 Charge =  0 Multiplicity = 1

 SCF Done:  E(RM062X) =  -617.488623441     A.U. after   12 cycles
 SCF Done:  E(RM062X) =  -617.489021683     A.U. after   11 cycles
 SCF Done:  E(RM062X) =  -617.490408575     A.U. after   11 cycles
 SCF Done:  E(RM062X) =  -617.490722166     A.U. after   10 cycles
 SCF Done:  E(RM062X) =  -617.490832172     A.U. after   10 cycles
 SCF Done:  E(RM062X) =  -617.490840523     A.U. after    8 cycles
 SCF Done:  E(RM062X) =  -617.490841796     A.U. after    8 cycles
 SCF Done:  E(RM062X) =  -617.490841949     A.U. after    7 cycles
 Optimization completed.
    -- Stationary point found.
 Normal termination of Gaussian 16 at Mon Nov  5 03:31:32 2018.

 ----------------------------------------------------------------------
 #N Geom=AllCheck Guess=TCheck SCRF=Check GenChk RM062X/6-311++G(2d,2p)
  Freq
 ----------------------------------------------------------------------

 Structure from the checkpoint file:  "D_1a_4a_L_PHI.inp_extract_1.chk"
 ---------------------------
 D_1a_4a_L_PHI.inp_extract_1
 ---------------------------
 Charge =  0 Multiplicity = 1

                         Standard orientation:
 ---------------------------------------------------------------------
 Center     Atomic      Atomic             Coordinates (Angstroms)
 Number     Number       Type             X           Y           Z
 ---------------------------------------------------------------------
      1          6           0        3.233313   -0.423063   -0.747390
      2          6           0        1.131367    0.250787    1.164250
      3          6           0       -1.771728    1.223119   -0.868980
      4          6           0        2.723989    1.013184   -0.702479
      5          6           0       -3.474426   -0.362383    0.017473
      6          8           0       -2.441564   -1.249727    0.423719
      7          6           0        2.111314   -1.378878   -0.389486
      8          6           0       -0.702338    0.204205   -0.485540
      9          6           0       -2.997201    1.080815    0.032111
     10          6           0       -1.320261   -1.191477   -0.438940
     11          8           0        1.492184   -1.075602    0.863967
     12          8           0       -0.192114    0.589220    0.785643
     13          6           0        2.157943    1.281170    0.689349
     14          1           0        4.051065   -0.541771   -0.032721
     15          1           0        3.614536   -0.684663   -1.734437
     16          1           0       -2.060306    1.039076   -1.906771
     17          1           0        3.531288    1.714930   -0.909693
     18          1           0        1.967125    1.168646   -1.473461
     19          1           0        1.363419   -1.395109   -1.186339
     20          1           0        2.485354   -2.394047   -0.273316
     21          1           0       -2.743587    1.362158    1.054942
     22          1           0       -3.801367    1.735319   -0.304784
     23          1           0       -1.617947   -1.474447   -1.457167
     24          1           0       -0.603414   -1.916210   -0.063187
     25          1           0        2.984966    1.254737    1.402878
     26          1           0        1.697473    2.265110    0.761839
     27          1           0        1.087775    0.282238    2.251786
     28          1           0       -3.808994   -0.637437   -0.991212
     29          1           0       -4.300785   -0.518194    0.707931
     30          1           0       -1.350190    2.226324   -0.815137
     31          1           0        0.083701    0.217339   -1.240002
 ---------------------------------------------------------------------

 SCF Done:  E(RM062X) =  -617.490841949     A.U. after    1 cycles

 The electronic state is 1-A.
 Alpha  occ. eigenvalues --  -19.63477 -19.62742 -19.62470 -10.63854 -10.58814
 Alpha  occ. eigenvalues --  -10.58401 -10.57817 -10.57698 -10.53377 -10.53231
 Alpha  occ. eigenvalues --  -10.53186 -10.53183 -10.52831  -1.19453  -1.16271
 Alpha  occ. eigenvalues --   -1.13205  -0.90832  -0.90395  -0.87295  -0.84524
 Alpha  occ. eigenvalues --   -0.74906  -0.73971  -0.73796  -0.71258  -0.66081
 Alpha  occ. eigenvalues --   -0.62998  -0.59557  -0.57833  -0.57334  -0.55249
 Alpha  occ. eigenvalues --   -0.54520  -0.53615  -0.52695  -0.50915  -0.49702
 Alpha  occ. eigenvalues --   -0.49021  -0.47093  -0.46522  -0.45573  -0.45093
 Alpha  occ. eigenvalues --   -0.43548  -0.41936  -0.41346  -0.40278  -0.39044
 Alpha  occ. eigenvalues --   -0.38843  -0.38131  -0.36430  -0.34264  -0.33385
 Alpha  occ. eigenvalues --   -0.31280
 Alpha virt. eigenvalues --   -0.00238   0.00705   0.00868   0.01166   0.02266
 Alpha virt. eigenvalues --    0.02565   0.02682   0.03190   0.03582   0.04639
 Alpha virt. eigenvalues --    0.04713   0.04870   0.05533   0.06023   0.07349

 Mulliken charges:
               1
     1  C   -0.429361
     2  C   -0.220264
     3  C   -0.654507
     4  C   -0.268175
     5  C   -0.153131
     6  O   -0.299460
     7  C   -0.182578
     8  C    0.121834
     9  C   -0.256952
    10  C   -0.440188
    11  O   -0.283300
    12  O   -0.224562
    13  C   -0.192484
    14  H    0.174440
    15  H    0.176845
    16  H    0.220569
    17  H    0.202836
    18  H    0.174831
    19  H    0.169387
    20  H    0.226708
    21  H    0.168198
    22  H    0.185092
    23  H    0.205917
    24  H    0.243374
    25  H    0.195526
    26  H    0.187556
    27  H    0.241375
    28  H    0.132226
    29  H    0.204192
    30  H    0.162237
    31  H    0.211820
 Sum of Mulliken charges =  -0.00000

 Dipole moment (field-independent basis, Debye):
    X=              1.9737    Y=              1.9376    Z=             -3.9154  Tot=              4.7937
 Quadrupole moment (field-independent basis, Debye-Ang):
   XX=            -71.6844   YY=            -82.5568   ZZ=            -80.0818
   XY=             -3.1798   XZ=              2.3688   YZ=              3.9305

  Exact polarizability: 172.421  -2.869 157.424  -1.197   3.476 153.577
 Approx polarizability: 145.898  -2.821 141.030   0.052   1.859 144.774

                      1                      2                      3
                      A                      A                      A
 Frequencies --      9.8582                55.9408                97.7527
 Red. masses --      3.6799                 3.9952                 3.0548
 Frc consts  --      0.0002                 0.0074                 0.0172
 IR Inten    --      3.8473                 0.9969                 1.1128

                      4                      5                      6
                      A                      A                      A
 Frequencies --    123.9148               178.2421               215.8005
 Red. masses --      3.7809                 4.2600                 3.1671
 Frc consts  --      0.0342                 0.0797                 0.0869
 IR Inten    --      1.5818                 1.5015                 6.2464

                      7                      8                      9
                      A                      A                      A
 Frequencies --    235.1147               295.3253               339.5096
 Red. masses --      2.7370                 2.5247                 1.9739
 Frc consts  --      0.0891                 0.1297                 0.1341
 IR Inten    --     12.4149                 6.3288                 3.6073

                     10                     11                     12
                      A                      A                      A
 Frequencies --    357.9093               405.4098               424.6615
 Red. masses --      2.2614                 2.1350                 2.2702
 Frc consts  --      0.1707                 0.2067                 0.2412
 IR Inten    --      0.8224                 3.3634                 4.0906

                     13                     14                     15
                      A                      A                      A
 Frequencies --    439.1243               469.3526               514.7278
 Red. masses --      3.1791                 3.9652                 2.7330
 Frc consts  --      0.3612                 0.5146                 0.4266
 IR Inten    --      3.6132                 1.7471                 3.3765

                     16                     17                     18
                      A                      A                      A
 Frequencies --    523.6980               582.2152               688.7281
 Red. masses --      2.3225                 2.5330                 2.8441
 Frc consts  --      0.3753                 0.5059                 0.7949
 IR Inten    --      1.9683                17.6557                12.4529

                     19                     20                     21
                      A                      A                      A
 Frequencies --    744.7824               791.9502               833.0191
 Red. masses --      2.9462                 2.5273                 1.9790
 Frc consts  --      0.9629                 0.9339                 0.8091
 IR Inten    --     13.2610                 6.2412                12.3702

                     22                     23                     24
                      A                      A                      A
 Frequencies --    857.9982               860.7485               874.8669
 Red. masses --      2.7987                 2.6290                 1.6195
 Frc consts  --      1.2139                 1.1476                 0.7303
 IR Inten    --     12.2267                 8.9911                14.4748

                     25                     26                     27
                      A                      A                      A
 Frequencies --    893.1374               900.1130               908.8606
 Red. masses --      2.5150                 2.2271                 2.6052
 Frc consts  --      1.1820                 1.0631                 1.2679
 IR Inten    --     17.1896                22.9395                48.3304

                     28                     29                     30
                      A                      A                      A
 Frequencies --    928.9960               947.6321               987.6091
 Red. masses --      1.9425                 1.5383                 1.8998
 Frc consts  --      0.9877                 0.8139                 1.0918
 IR Inten    --     15.9323                 8.9871                 5.5193

                     31                     32                     33
                      A                      A                      A
 Frequencies --   1029.6704              1045.6452              1056.5781
 Red. masses --      2.0249                 2.3477                 1.9423
 Frc consts  --      1.2649                 1.5124                 1.2775
 IR Inten    --     30.5020                 8.8945                59.0488

                     34                     35                     36
                      A                      A                      A
 Frequencies --   1063.7889              1075.7057              1086.1011
 Red. masses --      2.2917                 1.5921                 2.2078
 Frc consts  --      1.5280                 1.0854                 1.5345
 IR Inten    --    115.6765                44.9059               192.9838

                     37                     38                     39
                      A                      A                      A
 Frequencies --   1109.7272              1146.4468              1151.5327
 Red. masses --      1.5887                 2.5208                 2.4632
 Frc consts  --      1.1527                 1.9521                 1.9245
 IR Inten    --      7.8393               173.2670                25.0521

                     40                     41                     42
                      A                      A                      A
 Frequencies --   1161.5963              1188.0844              1215.2961
 Red. masses --      2.5216                 2.7776                 1.4713
 Frc consts  --      2.0047                 2.3100                 1.2803
 IR Inten    --     34.9987               168.8052                56.4014

                     43                     44                     45
                      A                      A                      A
 Frequencies --   1227.1061              1243.4827              1248.4579
 Red. masses --      1.4011                 1.7866                 1.8892
 Frc consts  --      1.2431                 1.6277                 1.7349
 IR Inten    --      0.2873                67.3140               109.4774

                     46                     47                     48
                      A                      A                      A
 Frequencies --   1297.7958              1300.5003              1321.2396
 Red. masses --      1.2409                 1.1134                 1.1733
 Frc consts  --      1.2314                 1.1095                 1.2067
 IR Inten    --     37.3643                20.8333                15.2373

                     49                     50                     51
                      A                      A                      A
 Frequencies --   1339.8907              1358.2303              1363.7910
 Red. masses --      1.2165                 1.4328                 1.4458
 Frc consts  --      1.2868                 1.5573                 1.5843
 IR Inten    --     11.4267                 2.3180                 3.6464

                     52                     53                     54
                      A                      A                      A
 Frequencies --   1367.4243              1383.3485              1388.4773
 Red. masses --      1.4095                 1.3888                 1.5052
 Frc consts  --      1.5528                 1.5659                 1.7097
 IR Inten    --      0.5467                22.1031                10.3872

                     55                     56                     57
                      A                      A                      A
 Frequencies --   1393.0743              1400.4398              1404.8902
 Red. masses --      1.5837                 1.3673                 1.3757
 Frc consts  --      1.8108                 1.5800                 1.5998
 IR Inten    --     11.3957                13.9437                 4.4465

                     58                     59                     60
                      A                      A                      A
 Frequencies --   1409.6466              1428.1537              1430.0536
 Red. masses --      1.4196                 1.3438                 1.3264
 Frc consts  --      1.6620                 1.6148                 1.5982
 IR Inten    --     13.2287                18.6935                 3.3656

                     61                     62                     63
                      A                      A                      A
 Frequencies --   1444.6692              1474.6246              1475.8718
 Red. masses --      1.2261                 1.0968                 1.0882
 Frc consts  --      1.5077                 1.4052                 1.3965
 IR Inten    --      5.8391                 4.4264                 6.3620

                     64                     65                     66
                      A                      A                      A
 Frequencies --   1484.8220              1486.8692              1492.6382
 Red. masses --      1.1194                 1.0912                 1.0860
 Frc consts  --      1.4541                 1.4213                 1.4256
 IR Inten    --     14.1204                 8.1207                 2.5196

                     67                     68                     69
                      A                      A                      A
 Frequencies --   1506.6204              1510.2693              1529.9311
 Red. masses --      1.1009                 1.1026                 1.0887
 Frc consts  --      1.4724                 1.4818                 1.5014
 IR Inten    --     14.0403                 8.8219                 3.7892

                     70                     71                     72
                      A                      A                      A
 Frequencies --   3011.0369              3014.2840              3058.6147
 Red. masses --      1.0707                 1.0711                 1.0704
 Frc consts  --      5.7195                 5.7337                 5.9001
 IR Inten    --     70.9739                87.1281                36.1872

                     73                     74                     75
                      A                      A                      A
 Frequencies --   3066.2921              3067.0222              3068.0368
 Red. masses --      1.0683                 1.0634                 1.0639
 Frc consts  --      5.9182                 5.8935                 5.9005
 IR Inten    --     31.5558                40.9934                20.9121

                     76                     77                     78
                      A                      A                      A
 Frequencies --   3075.2138              3079.0985              3106.4021
 Red. masses --      1.0616                 1.0602                 1.0873
 Frc consts  --      5.9151                 5.9222                 6.1816
 IR Inten    --     28.8989                28.8502                93.3217

                     79                     80                     81
                      A                      A                      A
 Frequencies --   3111.3768              3117.2621              3118.9234
 Red. masses --      1.0885                 1.0957                 1.0993
 Frc consts  --      6.2084                 6.2733                 6.3005
 IR Inten    --     49.7157                 8.7985                35.5413

                     82                     83                     84
                      A                      A                      A
 Frequencies --   3122.0892              3124.9159              3130.0818
 Red. masses --      1.0953                 1.1013                 1.0984
 Frc consts  --      6.2906                 6.3363                 6.3404
 IR Inten    --     73.8147                58.6892                17.5256

                     85                     86                     87
                      A                      A                      A
 Frequencies --   3130.2374              3131.8680              3159.3943
 Red. masses --      1.0971                 1.0999                 1.0924
 Frc consts  --      6.3334                 6.3563                 6.4245
 IR Inten    --     51.7297                67.6120                17.7384

 - Thermochemistry -
 -------------------
 Temperature   298.150 Kelvin.  Pressure   1.00000 Atm.
 Atom     1 has atomic number  6 and mass  12.00000

 Molecular mass:   186.12559 amu.
 Principal axes and moments of inertia in atomic units:
                           1         2         3
     Eigenvalues --  1057.516973645.183463981.76666
           X            0.99999  -0.00472  -0.00094
           Y            0.00475   0.99927   0.03799
           Z            0.00076  -0.03800   0.99928
 This molecule is an asymmetric top.
 Rotational symmetry number  1.
 Warning -- assumption of classical behavior for rotation
           may cause significant error
 Rotational temperatures (Kelvin)      0.08190     0.02376     0.02175
 Rotational constants (GHZ):           1.70658     0.49510     0.45325
 Zero-point vibrational energy     737029.1 (Joules/Mol)
                                  176.15418 (Kcal/Mol)
 Warning -- explicit consideration of  17 degrees of freedom as
           vibrations may cause significant error
 Vibrational temperatures:     14.18    80.49   140.64   178.29   256.45
          (Kelvin)            310.49   338.28   424.91   488.48   514.95
                              583.29   610.99   631.80   675.29   740.58
                              753.48   837.68   990.93  1071.58  1139.44
                             1198.53  1234.47  1238.43  1258.74  1285.03
                             1295.06  1307.65  1336.62  1363.43  1420.95
                             1481.47  1504.45  1520.18  1530.56  1547.70
                             1562.66  1596.65  1649.48  1656.80  1671.28
                             1709.39  1748.54  1765.53  1789.09  1796.25
                             1867.24  1871.13  1900.97  1927.80  1954.19
                             1962.19  1967.42  1990.33  1997.71  2004.32
                             2014.92  2021.32  2028.17  2054.79  2057.53
                             2078.56  2121.66  2123.45  2136.33  2139.27
                             2147.57  2167.69  2172.94  2201.23  4332.21
                             4336.88  4400.66  4411.71  4412.76  4414.22
                             4424.55  4430.14  4469.42  4476.58  4485.04
                             4487.44  4491.99  4496.06  4503.49  4503.71
                             4506.06  4545.66

 Zero-point correction=                           0.280720 (Hartree/Particle)
 Thermal correction to Energy=                    0.292570
 Thermal correction to Enthalpy=                  0.293515
 Thermal correction to Gibbs Free Energy=         0.241069
 Sum of electronic and zero-point Energies=           -617.210122
 Sum of electronic and thermal Energies=              -617.198272
 Sum of electronic and thermal Enthalpies=            -617.197327
 Sum of electronic and thermal Free Energies=         -617.249773

                     E (Thermal)             CV                S
                      KCal/Mol        Cal/Mol-Kelvin    Cal/Mol-Kelvin
 Total                  183.591             46.772            110.381
 Electronic               0.000              0.000              0.000
 Translational            0.889              2.981             41.570
 Rotational               0.889              2.981             31.107
 Vibrational            181.813             40.810             37.704
 Vibration     1          0.593              1.987              8.039
 Vibration     2          0.596              1.975              4.595
 Vibration     3          0.603              1.951              3.499
 Vibration     4          0.610              1.929              3.038
 Vibration     5          0.629              1.869              2.347
 Vibration     6          0.645              1.817              1.994
 Vibration     7          0.655              1.787              1.840
 Vibration     8          0.690              1.682              1.443
 Vibration     9          0.719              1.597              1.214
 Vibration    10          0.733              1.559              1.131
 Vibration    11          0.770              1.458              0.943
 Vibration    12          0.787              1.417              0.876
 Vibration    13          0.799              1.385              0.829
 Vibration    14          0.826              1.318              0.739
 Vibration    15          0.870              1.217              0.622
 Vibration    16          0.879              1.198              0.601
 Vibration    17          0.939              1.070              0.481

 Optimization completed.
    -- Stationary point found.
 Normal termination of Gaussian 16 at Mon Nov  5 04:27:56 2018.
