 Gaussian 16, Revision A.03,
 Gaussian 16:  ES64L-G16RevA.03 25-Dec-2016

 ----------------------------------------------------------------------
 #M062X/6-311++G(2d,2p) opt=ModRedundant freq=noraman SCRF=(Solvent=Wat
 er)
 ----------------------------------------------------------------------

 ----------------------------
 D_1a_4a_L_PHI.inp_extract_18
 ----------------------------
 Symbolic Z-matrix:
 Charge =  0 Multiplicity = 1

 SCF Done:  E(RM062X) =  -617.494748566     A.U. after   12 cycles
 SCF Done:  E(RM062X) =  -617.496016695     A.U. after   11 cycles
 SCF Done:  E(RM062X) =  -617.496557268     A.U. after   10 cycles
 SCF Done:  E(RM062X) =  -617.496669475     A.U. after   10 cycles
 SCF Done:  E(RM062X) =  -617.496686684     A.U. after    9 cycles
 SCF Done:  E(RM062X) =  -617.496688213     A.U. after    8 cycles
 Optimization completed.
    -- Stationary point found.
 Normal termination of Gaussian 16 at Mon Nov  5 03:14:49 2018.

 ----------------------------------------------------------------------
 #N Geom=AllCheck Guess=TCheck SCRF=Check GenChk RM062X/6-311++G(2d,2p)
  Freq
 ----------------------------------------------------------------------

 Structure from the checkpoint file:  "D_1a_4a_L_PHI.inp_extract_18.chk"
 ----------------------------
 D_1a_4a_L_PHI.inp_extract_18
 ----------------------------
 Charge =  0 Multiplicity = 1

                         Standard orientation:
 ---------------------------------------------------------------------
 Center     Atomic      Atomic             Coordinates (Angstroms)
 Number     Number       Type             X           Y           Z
 ---------------------------------------------------------------------
      1          6           0       -3.408907   -0.426573    0.514451
      2          6           0       -1.059785    0.523744   -0.904501
      3          6           0        1.744091    1.346452    0.261662
      4          6           0       -2.475580    0.559759    1.211629
      5          6           0        3.529867   -0.336228   -0.184193
      6          8           0        2.620018   -1.391704    0.095111
      7          6           0       -2.611430   -1.233028   -0.492956
      8          6           0        0.828643    0.179573    0.637378
      9          6           0        2.807197    0.883619   -0.733307
     10          6           0        1.663016   -1.016434    1.067351
     11          8           0       -1.987652   -0.378687   -1.450383
     12          8           0        0.051186   -0.245159   -0.473548
     13          6           0       -1.723774    1.387848    0.167592
     14          1           0       -4.202662    0.112712   -0.007466
     15          1           0       -3.878397   -1.098393    1.233330
     16          1           0        2.224215    1.714420    1.172004
     17          1           0       -3.031313    1.222480    1.874189
     18          1           0       -1.776428   -0.001582    1.834935
     19          1           0       -1.848173   -1.829622    0.014248
     20          1           0       -3.245897   -1.901531   -1.070210
     21          1           0        2.337762    0.620706   -1.682506
     22          1           0        3.527492    1.678662   -0.926430
     23          1           0        2.166151   -0.770129    2.010238
     24          1           0        1.018833   -1.879625    1.225066
     25          1           0       -2.438101    2.017594   -0.366226
     26          1           0       -1.000255    2.059155    0.627645
     27          1           0       -0.746343    1.147864   -1.743908
     28          1           0        4.068085   -0.071743    0.735185
     29          1           0        4.246659   -0.732170   -0.900389
     30          1           0        1.157183    2.169055   -0.148515
     31          1           0        0.192753    0.454156    1.478734
 ---------------------------------------------------------------------

 SCF Done:  E(RM062X) =  -617.496688213     A.U. after    1 cycles

 The electronic state is 1-A.
 Alpha  occ. eigenvalues --  -19.63038 -19.62858 -19.62790 -10.63837 -10.58935
 Alpha  occ. eigenvalues --  -10.58146 -10.57912 -10.57740 -10.53478 -10.53365
 Alpha  occ. eigenvalues --  -10.53303 -10.52949 -10.52929  -1.19852  -1.16512
 Alpha  occ. eigenvalues --   -1.13157  -0.90356  -0.90160  -0.87415  -0.84957
 Alpha  occ. eigenvalues --   -0.74951  -0.74146  -0.73108  -0.71180  -0.66603
 Alpha  occ. eigenvalues --   -0.62093  -0.59770  -0.58792  -0.57275  -0.56163
 Alpha  occ. eigenvalues --   -0.54689  -0.52931  -0.52274  -0.51264  -0.49668
 Alpha  occ. eigenvalues --   -0.48617  -0.46778  -0.46196  -0.45781  -0.45252
 Alpha  occ. eigenvalues --   -0.44207  -0.42734  -0.40715  -0.40237  -0.39260
 Alpha  occ. eigenvalues --   -0.38739  -0.37359  -0.36732  -0.35098  -0.32748
 Alpha  occ. eigenvalues --   -0.31862
 Alpha virt. eigenvalues --   -0.00178   0.00827   0.00855   0.01140   0.02284
 Alpha virt. eigenvalues --    0.02555   0.02660   0.03447   0.03511   0.04709
 Alpha virt. eigenvalues --    0.04733   0.04896   0.05457   0.06019   0.07379

 Mulliken charges:
               1
     1  C   -0.361840
     2  C   -0.188108
     3  C   -0.423666
     4  C   -0.248705
     5  C   -0.207519
     6  O   -0.309584
     7  C   -0.208560
     8  C    0.197631
     9  C   -0.273533
    10  C   -0.486330
    11  O   -0.245965
    12  O   -0.363701
    13  C   -0.270244
    14  H    0.169901
    15  H    0.168725
    16  H    0.221026
    17  H    0.191962
    18  H    0.157867
    19  H    0.144399
    20  H    0.214805
    21  H    0.160708
    22  H    0.183697
    23  H    0.195224
    24  H    0.195636
    25  H    0.223013
    26  H    0.190326
    27  H    0.269206
    28  H    0.139945
    29  H    0.205196
    30  H    0.138653
    31  H    0.219835
 Sum of Mulliken charges =  -0.00000

 Dipole moment (field-independent basis, Debye):
    X=             -0.4115    Y=              3.4706    Z=              3.6890  Tot=              5.0817
 Quadrupole moment (field-independent basis, Debye-Ang):
   XX=            -74.2526   YY=            -80.8310   ZZ=            -81.7929
   XY=              6.4080   XZ=             -3.0489   YZ=             -2.8486

  Exact polarizability: 173.013   3.464 156.404  -1.441  -1.656 154.255
 Approx polarizability: 146.444   2.119 142.342   0.731  -0.433 143.371

                      1                      2                      3
                      A                      A                      A
 Frequencies --     18.0578                54.7886                96.4379
 Red. masses --      3.7411                 3.8284                 3.5477
 Frc consts  --      0.0007                 0.0068                 0.0194
 IR Inten    --      2.4338                 0.5793                 0.1508

                      4                      5                      6
                      A                      A                      A
 Frequencies --    154.2874               184.6352               212.7374
 Red. masses --      3.8421                 2.7080                 3.6163
 Frc consts  --      0.0539                 0.0544                 0.0964
 IR Inten    --      0.4713                 0.9223                12.5710

                      7                      8                      9
                      A                      A                      A
 Frequencies --    259.6184               280.1723               344.5644
 Red. masses --      2.6979                 2.2502                 2.0968
 Frc consts  --      0.1071                 0.1041                 0.1467
 IR Inten    --      1.3459                 0.9813                 4.8757

                     10                     11                     12
                      A                      A                      A
 Frequencies --    392.3448               407.9340               426.8355
 Red. masses --      2.5582                 2.1548                 2.7331
 Frc consts  --      0.2320                 0.2113                 0.2934
 IR Inten    --     11.5664                11.6328                 2.8888

                     13                     14                     15
                      A                      A                      A
 Frequencies --    442.5615               496.9591               521.7039
 Red. masses --      2.6162                 3.7140                 2.4934
 Frc consts  --      0.3019                 0.5404                 0.3998
 IR Inten    --      1.3525                 3.3148                 2.7193

                     16                     17                     18
                      A                      A                      A
 Frequencies --    542.2437               545.9107               672.9355
 Red. masses --      3.5227                 1.9592                 2.5142
 Frc consts  --      0.6103                 0.3440                 0.6708
 IR Inten    --     11.3232                 6.4016                 2.3771

                     19                     20                     21
                      A                      A                      A
 Frequencies --    751.1483               819.8391               839.6675
 Red. masses --      2.5436                 2.2543                 2.2578
 Frc consts  --      0.8456                 0.8927                 0.9379
 IR Inten    --      1.8233                 0.4662                 6.8481

                     22                     23                     24
                      A                      A                      A
 Frequencies --    849.1121               870.4324               880.6002
 Red. masses --      3.2715                 2.0422                 1.8157
 Frc consts  --      1.3897                 0.9116                 0.8296
 IR Inten    --      4.7163                 1.7698                18.1206

                     25                     26                     27
                      A                      A                      A
 Frequencies --    896.3663               901.5669               919.6618
 Red. masses --      2.2903                 2.4308                 2.5126
 Frc consts  --      1.0842                 1.1641                 1.2520
 IR Inten    --     23.6871                29.0610                36.5752

                     28                     29                     30
                      A                      A                      A
 Frequencies --    928.8628               944.4169               996.7398
 Red. masses --      1.9848                 1.6532                 2.1020
 Frc consts  --      1.0089                 0.8688                 1.2304
 IR Inten    --     46.1417                 8.5003                45.2367

                     31                     32                     33
                      A                      A                      A
 Frequencies --   1031.0876              1039.4832              1061.9159
 Red. masses --      1.9283                 2.2948                 1.9567
 Frc consts  --      1.2078                 1.4610                 1.3000
 IR Inten    --     34.6390                72.2265                14.0800

                     34                     35                     36
                      A                      A                      A
 Frequencies --   1068.8634              1072.7746              1076.2084
 Red. masses --      1.8961                 2.2705                 1.7493
 Frc consts  --      1.2763                 1.5396                 1.1937
 IR Inten    --    122.6724               171.3740                13.4710

                     37                     38                     39
                      A                      A                      A
 Frequencies --   1106.1400              1149.5982              1159.8172
 Red. masses --      1.6352                 2.5107                 2.3973
 Frc consts  --      1.1788                 1.9550                 1.9000
 IR Inten    --     48.7352                34.4135               133.6295

                     40                     41                     42
                      A                      A                      A
 Frequencies --   1169.4363              1188.3887              1216.6052
 Red. masses --      2.7525                 3.2416                 1.4631
 Frc consts  --      2.2178                 2.6973                 1.2759
 IR Inten    --     63.2373               129.8648                73.0764

                     43                     44                     45
                      A                      A                      A
 Frequencies --   1226.8847              1239.5614              1248.8143
 Red. masses --      1.3713                 1.7298                 1.8415
 Frc consts  --      1.2161                 1.5660                 1.6921
 IR Inten    --     24.4961                29.0588                84.0492

                     46                     47                     48
                      A                      A                      A
 Frequencies --   1290.7893              1302.0287              1320.0488
 Red. masses --      1.2202                 1.1301                 1.1616
 Frc consts  --      1.1978                 1.1287                 1.1926
 IR Inten    --     30.5162                13.5557                 7.8591

                     49                     50                     51
                      A                      A                      A
 Frequencies --   1338.4368              1354.3741              1365.6651
 Red. masses --      1.2394                 1.3407                 1.4468
 Frc consts  --      1.3081                 1.4489                 1.5898
 IR Inten    --     15.3139                21.1859                 5.7683

                     52                     53                     54
                      A                      A                      A
 Frequencies --   1369.1266              1378.8484              1388.0419
 Red. masses --      1.3339                 1.3366                 1.5348
 Frc consts  --      1.4732                 1.4973                 1.7422
 IR Inten    --      4.7177                 9.2037                11.9344

                     55                     56                     57
                      A                      A                      A
 Frequencies --   1392.4950              1395.0308              1406.4130
 Red. masses --      1.5754                 1.3558                 1.4031
 Frc consts  --      1.7998                 1.5545                 1.6352
 IR Inten    --      6.8462                 9.2503                 4.2769

                     58                     59                     60
                      A                      A                      A
 Frequencies --   1410.4051              1418.3662              1430.0780
 Red. masses --      1.4041                 1.3465                 1.3531
 Frc consts  --      1.6456                 1.5960                 1.6304
 IR Inten    --     10.0758                10.0830                 6.4956

                     61                     62                     63
                      A                      A                      A
 Frequencies --   1435.0469              1475.5413              1481.1992
 Red. masses --      1.4155                 1.0906                 1.0973
 Frc consts  --      1.7175                 1.3990                 1.4185
 IR Inten    --     13.0684                 5.3076                 3.5597

                     64                     65                     66
                      A                      A                      A
 Frequencies --   1485.7313              1490.5025              1491.1561
 Red. masses --      1.1043                 1.0868                 1.0943
 Frc consts  --      1.4362                 1.4225                 1.4337
 IR Inten    --     10.3381                 7.2088                12.4826

                     67                     68                     69
                      A                      A                      A
 Frequencies --   1499.8182              1509.7092              1510.7800
 Red. masses --      1.1033                 1.1010                 1.0944
 Frc consts  --      1.4623                 1.4785                 1.4717
 IR Inten    --     22.5113                 6.4107                 4.7507

                     70                     71                     72
                      A                      A                      A
 Frequencies --   3011.8041              3026.5506              3056.1158
 Red. masses --      1.0708                 1.0687                 1.0687
 Frc consts  --      5.7228                 5.7680                 5.8810
 IR Inten    --     79.3400                67.0119                48.7841

                     73                     74                     75
                      A                      A                      A
 Frequencies --   3063.0305              3065.5067              3066.9381
 Red. masses --      1.0640                 1.0640                 1.0794
 Frc consts  --      5.8816                 5.8911                 5.9817
 IR Inten    --     39.6970                26.4843                48.1935

                     76                     77                     78
                      A                      A                      A
 Frequencies --   3071.2300              3078.4664              3083.7977
 Red. masses --      1.0653                 1.0613                 1.0685
 Frc consts  --      5.9204                 5.9259                 5.9868
 IR Inten    --     21.0872                27.3501                54.1431

                     79                     80                     81
                      A                      A                      A
 Frequencies --   3109.0189              3109.6753              3114.8609
 Red. masses --      1.0937                 1.0916                 1.0977
 Frc consts  --      6.2284                 6.2192                 6.2751
 IR Inten    --     55.0842                63.0805                19.5883

                     82                     83                     84
                      A                      A                      A
 Frequencies --   3120.8953              3124.2902              3129.5323
 Red. masses --      1.1009                 1.1026                 1.0951
 Frc consts  --      6.3174                 6.3414                 6.3193
 IR Inten    --     67.2514                62.6589                39.4278

                     85                     86                     87
                      A                      A                      A
 Frequencies --   3131.8025              3133.2533              3137.4306
 Red. masses --      1.0955                 1.0977                 1.0987
 Frc consts  --      6.3304                 6.3495                 6.3719
 IR Inten    --     38.2205                31.3959                43.9336

 - Thermochemistry -
 -------------------
 Temperature   298.150 Kelvin.  Pressure   1.00000 Atm.
 Atom     1 has atomic number  6 and mass  12.00000

 Molecular mass:   186.12559 amu.
 Principal axes and moments of inertia in atomic units:
                           1         2         3
     Eigenvalues --  1035.274993913.451334058.54437
           X            0.99990   0.01003  -0.01032
           Y           -0.01051   0.99883  -0.04726
           Z            0.00983   0.04736   0.99883
 This molecule is an asymmetric top.
 Rotational symmetry number  1.
 Warning -- assumption of classical behavior for rotation
           may cause significant error
 Rotational temperatures (Kelvin)      0.08366     0.02213     0.02134
 Rotational constants (GHZ):           1.74325     0.46116     0.44468
 Zero-point vibrational energy     737393.4 (Joules/Mol)
                                  176.24126 (Kcal/Mol)
 Warning -- explicit consideration of  17 degrees of freedom as
           vibrations may cause significant error
 Vibrational temperatures:     25.98    78.83   138.75   221.99   265.65
          (Kelvin)            306.08   373.53   403.11   495.75   564.50
                              586.93   614.12   636.75   715.01   750.62
                              780.17   785.44   968.20  1080.73  1179.57
                             1208.09  1221.68  1252.36  1266.99  1289.67
                             1297.15  1323.19  1336.43  1358.81  1434.09
                             1483.51  1495.58  1527.86  1537.86  1543.48
                             1548.42  1591.49  1654.02  1668.72  1682.56
                             1709.83  1750.42  1765.21  1783.45  1796.77
                             1857.16  1873.33  1899.26  1925.71  1948.64
                             1964.89  1969.87  1983.86  1997.08  2003.49
                             2007.14  2023.51  2029.26  2040.71  2057.56
                             2064.71  2122.97  2131.12  2137.64  2144.50
                             2145.44  2157.90  2172.13  2173.68  4333.31
                             4354.53  4397.07  4407.02  4410.58  4412.64
                             4418.81  4429.23  4436.90  4473.18  4474.13
                             4481.59  4490.27  4495.16  4502.70  4505.97
                             4508.05  4514.06

 Zero-point correction=                           0.280858 (Hartree/Particle)
 Thermal correction to Energy=                    0.292547
 Thermal correction to Enthalpy=                  0.293491
 Thermal correction to Gibbs Free Energy=         0.241941
 Sum of electronic and zero-point Energies=           -617.215830
 Sum of electronic and thermal Energies=              -617.204142
 Sum of electronic and thermal Enthalpies=            -617.203197
 Sum of electronic and thermal Free Energies=         -617.254747

                     E (Thermal)             CV                S
                      KCal/Mol        Cal/Mol-Kelvin    Cal/Mol-Kelvin
 Total                  183.576             46.528            108.495
 Electronic               0.000              0.000              0.000
 Translational            0.889              2.981             41.570
 Rotational               0.889              2.981             31.176
 Vibrational            181.798             40.566             35.750
 Vibration     1          0.593              1.986              6.837
 Vibration     2          0.596              1.976              4.637
 Vibration     3          0.603              1.952              3.525
 Vibration     4          0.620              1.898              2.619
 Vibration     5          0.631              1.861              2.281
 Vibration     6          0.644              1.822              2.020
 Vibration     7          0.668              1.746              1.664
 Vibration     8          0.680              1.710              1.533
 Vibration     9          0.723              1.586              1.191
 Vibration    10          0.760              1.487              0.991
 Vibration    11          0.773              1.453              0.934
 Vibration    12          0.789              1.412              0.869
 Vibration    13          0.802              1.377              0.819
 Vibration    14          0.852              1.257              0.666
 Vibration    15          0.877              1.202              0.606
 Vibration    16          0.897              1.157              0.560
 Vibration    17          0.901              1.149              0.553

 Optimization completed.
    -- Stationary point found.
 Normal termination of Gaussian 16 at Mon Nov  5 04:11:29 2018.
