 Gaussian 16, Revision A.03,
 Gaussian 16:  ES64L-G16RevA.03 25-Dec-2016

 ----------------------------------------------------------------------
 #M062X/6-311++G(2d,2p) opt=ModRedundant freq=noraman SCRF=(Solvent=Wat
 er)
 ----------------------------------------------------------------------

 ----------------------------
 D_1a_4a_L_PHI.inp_extract_10
 ----------------------------
 Symbolic Z-matrix:
 Charge =  0 Multiplicity = 1

 SCF Done:  E(RM062X) =  -617.501079110     A.U. after   12 cycles
 SCF Done:  E(RM062X) =  -617.502653517     A.U. after   10 cycles
 SCF Done:  E(RM062X) =  -617.502756687     A.U. after    9 cycles
 SCF Done:  E(RM062X) =  -617.502767185     A.U. after    8 cycles
 SCF Done:  E(RM062X) =  -617.502767761     A.U. after    7 cycles
 Optimization completed.
    -- Stationary point found.
 Normal termination of Gaussian 16 at Mon Nov  5 01:19:31 2018.

 ----------------------------------------------------------------------
 #N Geom=AllCheck Guess=TCheck SCRF=Check GenChk RM062X/6-311++G(2d,2p)
  Freq
 ----------------------------------------------------------------------

 Structure from the checkpoint file:  "D_1a_4a_L_PHI.inp_extract_10.chk"
 ----------------------------
 D_1a_4a_L_PHI.inp_extract_10
 ----------------------------
 Charge =  0 Multiplicity = 1

                         Standard orientation:
 ---------------------------------------------------------------------
 Center     Atomic      Atomic             Coordinates (Angstroms)
 Number     Number       Type             X           Y           Z
 ---------------------------------------------------------------------
      1          6           0        3.411987    0.226245    0.761441
      2          6           0        1.096558   -0.407260   -0.824271
      3          6           0       -1.872684    1.519740    0.044258
      4          6           0        2.492376   -0.913326    1.197821
      5          6           0       -3.349877   -0.364479    0.735936
      6          8           0       -2.544634   -1.274152   -0.002639
      7          6           0        2.623468    1.239672   -0.051436
      8          6           0       -1.098449    0.519795   -0.804104
      9          6           0       -2.532560    0.817909    1.230756
     10          6           0       -1.984955   -0.670342   -1.152998
     11          8           0        1.990274    0.628351   -1.175886
     12          8           0        0.036551    0.096465   -0.052590
     13          6           0        1.797043   -1.498986   -0.030261
     14          1           0        4.224228   -0.169532    0.146824
     15          1           0        3.859656    0.724568    1.621889
     16          1           0       -2.641657    1.976262   -0.583309
     17          1           0        3.053950   -1.688245    1.718349
     18          1           0        1.742770   -0.530905    1.893791
     19          1           0        1.865122    1.718542    0.573672
     20          1           0        3.268792    2.012354   -0.463298
     21          1           0       -1.770817    0.458821    1.924109
     22          1           0       -3.179352    1.506906    1.774185
     23          1           0       -2.782234   -0.331632   -1.826277
     24          1           0       -1.412702   -1.445178   -1.661339
     25          1           0        2.535593   -1.965902   -0.684678
     26          1           0        1.062862   -2.255950    0.244211
     27          1           0        0.727065   -0.791552   -1.776200
     28          1           0       -4.172414   -0.013676    0.099513
     29          1           0       -3.772725   -0.932296    1.561988
     30          1           0       -1.199927    2.311449    0.372495
     31          1           0       -0.763191    0.996840   -1.729861
 ---------------------------------------------------------------------

 SCF Done:  E(RM062X) =  -617.502767761     A.U. after    1 cycles

 The electronic state is 1-A.
 Alpha  occ. eigenvalues --  -19.62965 -19.62922 -19.62804 -10.63442 -10.58920
 Alpha  occ. eigenvalues --  -10.58148 -10.57936 -10.57632 -10.53316 -10.52999
 Alpha  occ. eigenvalues --  -10.52958 -10.52950 -10.52813  -1.19959  -1.16492
 Alpha  occ. eigenvalues --   -1.13210  -0.90959  -0.89687  -0.86927  -0.84708
 Alpha  occ. eigenvalues --   -0.74575  -0.73838  -0.72775  -0.71605  -0.66353
 Alpha  occ. eigenvalues --   -0.62773  -0.59487  -0.58126  -0.57819  -0.55738
 Alpha  occ. eigenvalues --   -0.54426  -0.53164  -0.52008  -0.50777  -0.49782
 Alpha  occ. eigenvalues --   -0.48213  -0.46946  -0.46026  -0.45520  -0.45149
 Alpha  occ. eigenvalues --   -0.43651  -0.42814  -0.41178  -0.40383  -0.38731
 Alpha  occ. eigenvalues --   -0.38322  -0.37688  -0.36752  -0.34925  -0.33219
 Alpha  occ. eigenvalues --   -0.31870
 Alpha virt. eigenvalues --   -0.00156   0.00815   0.00828   0.01057   0.02209
 Alpha virt. eigenvalues --    0.02540   0.02682   0.03211   0.03291   0.04662
 Alpha virt. eigenvalues --    0.04813   0.04859   0.05248   0.05923   0.07098

 Mulliken charges:
               1
     1  C   -0.348842
     2  C   -0.185059
     3  C   -0.396263
     4  C   -0.343900
     5  C   -0.214406
     6  O   -0.295399
     7  C   -0.146972
     8  C    0.039764
     9  C   -0.307517
    10  C   -0.375048
    11  O   -0.302874
    12  O   -0.222174
    13  C   -0.254486
    14  H    0.163747
    15  H    0.168268
    16  H    0.211277
    17  H    0.184587
    18  H    0.174493
    19  H    0.136230
    20  H    0.210304
    21  H    0.162335
    22  H    0.178119
    23  H    0.182139
    24  H    0.202520
    25  H    0.187345
    26  H    0.163426
    27  H    0.250579
    28  H    0.150063
    29  H    0.200357
    30  H    0.164436
    31  H    0.262950
 Sum of Mulliken charges =  -0.00000

 Dipole moment (field-independent basis, Debye):
    X=             -0.5948    Y=              1.3187    Z=              0.1572  Tot=              1.4552
 Quadrupole moment (field-independent basis, Debye-Ang):
   XX=            -73.6466   YY=            -81.1252   ZZ=            -79.0712
   XY=             -6.5551   XZ=              4.2457   YZ=              2.7495

  Exact polarizability: 170.294   0.912 157.003   0.065   1.284 156.448
 Approx polarizability: 145.746  -0.250 140.991  -0.800   0.673 144.014

 ******    1 imaginary frequencies (negative Signs) ******

                      1                      2                      3
                      A                      A                      A
 Frequencies --    -12.2249                52.7028                74.0553
 Red. masses --      4.1604                 3.5794                 3.4864
 Frc consts  --      0.0004                 0.0059                 0.0113
 IR Inten    --      3.9560                 0.7225                 1.9884

                      4                      5                      6
                      A                      A                      A
 Frequencies --    142.6076               169.8115               241.2923
 Red. masses --      3.2457                 3.8830                 2.7388
 Frc consts  --      0.0389                 0.0660                 0.0940
 IR Inten    --      2.2405                 3.9997                 5.1029

                      7                      8                      9
                      A                      A                      A
 Frequencies --    245.9405               280.5234               343.7674
 Red. masses --      2.6160                 2.3225                 2.2747
 Frc consts  --      0.0932                 0.1077                 0.1584
 IR Inten    --      2.9506                 5.6633                 1.9960

                     10                     11                     12
                      A                      A                      A
 Frequencies --    373.8859               417.8102               433.7771
 Red. masses --      2.0685                 2.5050                 2.6743
 Frc consts  --      0.1704                 0.2576                 0.2965
 IR Inten    --      2.8950                 0.9869                11.0807

                     13                     14                     15
                      A                      A                      A
 Frequencies --    436.2819               512.2574               518.9990
 Red. masses --      2.5875                 2.5608                 3.0804
 Frc consts  --      0.2902                 0.3959                 0.4889
 IR Inten    --      3.8613                 8.5496                 8.3034

                     16                     17                     18
                      A                      A                      A
 Frequencies --    528.4304               568.6480               667.4904
 Red. masses --      2.4436                 3.3643                 2.4926
 Frc consts  --      0.4020                 0.6410                 0.6543
 IR Inten    --      4.7486                10.3169                 7.8724

                     19                     20                     21
                      A                      A                      A
 Frequencies --    747.5684               835.0753               837.8610
 Red. masses --      2.5190                 1.5808                 3.4336
 Frc consts  --      0.8294                 0.6495                 1.4202
 IR Inten    --      6.2216                 1.2247                16.9418

                     22                     23                     24
                      A                      A                      A
 Frequencies --    851.0499               870.8123               878.5654
 Red. masses --      3.3858                 1.9518                 1.7293
 Frc consts  --      1.4449                 0.8721                 0.7864
 IR Inten    --      2.3431                15.5666                14.9490

                     25                     26                     27
                      A                      A                      A
 Frequencies --    896.4574               904.7471               907.9792
 Red. masses --      2.5206                 2.5665                 2.4201
 Frc consts  --      1.1935                 1.2378                 1.1756
 IR Inten    --     46.7069                27.2488                23.6795

                     28                     29                     30
                      A                      A                      A
 Frequencies --    934.7763               953.0054              1005.5174
 Red. masses --      1.7709                 1.6909                 1.6893
 Frc consts  --      0.9117                 0.9048                 1.0063
 IR Inten    --     11.4935                 6.8487                33.5825

                     31                     32                     33
                      A                      A                      A
 Frequencies --   1034.1453              1042.1848              1057.7114
 Red. masses --      2.1615                 2.2078                 2.0789
 Frc consts  --      1.3620                 1.4129                 1.3703
 IR Inten    --     17.8393                96.7423                20.8599

                     34                     35                     36
                      A                      A                      A
 Frequencies --   1064.3154              1070.8793              1076.2246
 Red. masses --      1.5270                 2.5084                 2.6764
 Frc consts  --      1.0191                 1.6948                 1.8265
 IR Inten    --     76.7715               106.1204               223.9541

                     37                     38                     39
                      A                      A                      A
 Frequencies --   1105.1292              1144.0839              1154.6202
 Red. masses --      1.5405                 2.1829                 2.8180
 Frc consts  --      1.1085                 1.6835                 2.2134
 IR Inten    --     36.7041                89.6140               117.9334

                     40                     41                     42
                      A                      A                      A
 Frequencies --   1165.7307              1184.7570              1211.1966
 Red. masses --      3.5199                 2.5661                 1.4216
 Frc consts  --      2.8182                 2.1222                 1.2288
 IR Inten    --    114.7616                20.1297                15.6674

                     43                     44                     45
                      A                      A                      A
 Frequencies --   1230.3712              1236.6614              1248.7231
 Red. masses --      1.4753                 1.5500                 1.8156
 Frc consts  --      1.3159                 1.3966                 1.6680
 IR Inten    --     44.2986                69.4012                39.7533

                     46                     47                     48
                      A                      A                      A
 Frequencies --   1286.7638              1303.3617              1318.5318
 Red. masses --      1.2103                 1.1322                 1.1477
 Frc consts  --      1.1807                 1.1332                 1.1756
 IR Inten    --     24.1040                 2.8983                 6.7940

                     49                     50                     51
                      A                      A                      A
 Frequencies --   1337.7005              1356.6692              1366.7911
 Red. masses --      1.2126                 1.3413                 1.3420
 Frc consts  --      1.2785                 1.4545                 1.4771
 IR Inten    --     10.8669                16.7724                 1.9153

                     52                     53                     54
                      A                      A                      A
 Frequencies --   1369.9499              1380.7039              1385.9988
 Red. masses --      1.6544                 1.3475                 1.4829
 Frc consts  --      1.8293                 1.5135                 1.6783
 IR Inten    --      4.5783                44.6803                 2.5414

                     55                     56                     57
                      A                      A                      A
 Frequencies --   1392.0570              1396.3351              1399.3618
 Red. masses --      1.7194                 1.4462                 1.3531
 Frc consts  --      1.9631                 1.6614                 1.5612
 IR Inten    --     16.1185                25.8362                 1.3350

                     58                     59                     60
                      A                      A                      A
 Frequencies --   1408.3665              1423.6098              1432.3790
 Red. masses --      1.3831                 1.4041                 1.3943
 Frc consts  --      1.6164                 1.6766                 1.6854
 IR Inten    --     13.0680                24.4090                 1.9223

                     61                     62                     63
                      A                      A                      A
 Frequencies --   1444.7239              1475.6484              1476.5380
 Red. masses --      1.2689                 1.0872                 1.1072
 Frc consts  --      1.5604                 1.3948                 1.4223
 IR Inten    --      6.7308                 6.0772                 5.3953

                     64                     65                     66
                      A                      A                      A
 Frequencies --   1482.9380              1484.8303              1492.8582
 Red. masses --      1.0866                 1.1196                 1.0869
 Frc consts  --      1.4079                 1.4543                 1.4272
 IR Inten    --      8.8014                14.8022                 5.2565

                     67                     68                     69
                      A                      A                      A
 Frequencies --   1496.0080              1510.4391              1510.8620
 Red. masses --      1.1063                 1.0941                 1.1006
 Frc consts  --      1.4588                 1.4706                 1.4802
 IR Inten    --     11.8970                 6.9579                 5.4916

                     70                     71                     72
                      A                      A                      A
 Frequencies --   3012.4258              3021.0207              3053.5308
 Red. masses --      1.0708                 1.0695                 1.0822
 Frc consts  --      5.7251                 5.7510                 5.9454
 IR Inten    --     76.2226                62.1924                32.0652

                     73                     74                     75
                      A                      A                      A
 Frequencies --   3056.4463              3063.0012              3070.3841
 Red. masses --      1.0686                 1.0626                 1.0634
 Frc consts  --      5.8815                 5.8739                 5.9066
 IR Inten    --     36.4714                51.0609                23.7098

                     76                     77                     78
                      A                      A                      A
 Frequencies --   3071.6765              3074.4951              3079.8017
 Red. masses --      1.0661                 1.0624                 1.0604
 Frc consts  --      5.9266                 5.9169                 5.9259
 IR Inten    --     58.0207                20.0536                24.9743

                     79                     80                     81
                      A                      A                      A
 Frequencies --   3092.5101              3112.1987              3117.4462
 Red. masses --      1.0854                 1.0977                 1.1020
 Frc consts  --      6.1159                 6.2641                 6.3098
 IR Inten    --     75.3931                37.4867                55.8187

                     82                     83                     84
                      A                      A                      A
 Frequencies --   3118.9406              3123.5902              3125.8113
 Red. masses --      1.0999                 1.0942                 1.1032
 Frc consts  --      6.3038                 6.2898                 6.3510
 IR Inten    --     38.7152                42.9123                95.9506

                     85                     86                     87
                      A                      A                      A
 Frequencies --   3125.9511              3131.5809              3135.0143
 Red. masses --      1.1032                 1.0966                 1.0993
 Frc consts  --      6.3516                 6.3360                 6.3657
 IR Inten    --      6.9234                45.7414                45.9633

 - Thermochemistry -
 -------------------
 Temperature   298.150 Kelvin.  Pressure   1.00000 Atm.
 Atom     1 has atomic number  6 and mass  12.00000

 Molecular mass:   186.12559 amu.
 Principal axes and moments of inertia in atomic units:
                           1         2         3
     Eigenvalues --  1099.890823927.526144061.76982
           X            0.99989  -0.01302   0.00720
           Y            0.01251   0.99768   0.06693
           Z           -0.00806  -0.06684   0.99773
 This molecule is an asymmetric top.
 Rotational symmetry number  1.
 Warning -- assumption of classical behavior for rotation
           may cause significant error
 Rotational temperatures (Kelvin)      0.07875     0.02205     0.02132
 Rotational constants (GHZ):           1.64084     0.45951     0.44432
    1 imaginary frequencies ignored.
 Zero-point vibrational energy     736766.2 (Joules/Mol)
                                  176.09134 (Kcal/Mol)
 Warning -- explicit consideration of  16 degrees of freedom as
           vibrations may cause significant error
 Vibrational temperatures:     75.83   106.55   205.18   244.32   347.17
          (Kelvin)            353.85   403.61   494.60   537.94   601.14
                              624.11   627.71   737.02   746.72   760.29
                              818.16   960.37  1075.58  1201.49  1205.50
                             1224.47  1252.90  1264.06  1289.80  1301.73
                             1306.38  1344.93  1371.16  1446.72  1487.90
                             1499.47  1521.81  1531.31  1540.76  1548.45
                             1590.03  1646.08  1661.24  1677.23  1704.60
                             1742.64  1770.23  1779.28  1796.63  1851.37
                             1875.25  1897.07  1924.65  1951.94  1966.51
                             1971.05  1986.52  1994.14  2002.86  2009.01
                             2013.37  2026.33  2048.26  2060.87  2078.64
                             2123.13  2124.41  2133.62  2136.34  2147.89
                             2152.42  2173.19  2173.79  4334.21  4346.57
                             4393.35  4397.54  4406.98  4417.60  4419.46
                             4423.51  4431.15  4449.43  4477.76  4485.31
                             4487.46  4494.15  4497.35  4497.55  4505.65
                             4510.59

 Zero-point correction=                           0.280619 (Hartree/Particle)
 Thermal correction to Energy=                    0.291469
 Thermal correction to Enthalpy=                  0.292413
 Thermal correction to Gibbs Free Energy=         0.243721
 Sum of electronic and zero-point Energies=           -617.222148
 Sum of electronic and thermal Energies=              -617.211298
 Sum of electronic and thermal Enthalpies=            -617.210354
 Sum of electronic and thermal Free Energies=         -617.259047

                     E (Thermal)             CV                S
                      KCal/Mol        Cal/Mol-Kelvin    Cal/Mol-Kelvin
 Total                  182.900             44.539            102.483
 Electronic               0.000              0.000              0.000
 Translational            0.889              2.981             41.570
 Rotational               0.889              2.981             31.240
 Vibrational            181.122             38.578             29.673
 Vibration     1          0.596              1.977              4.713
 Vibration     2          0.599              1.966              4.043
 Vibration     3          0.616              1.911              2.769
 Vibration     4          0.625              1.880              2.438
 Vibration     5          0.658              1.777              1.793
 Vibration     6          0.660              1.769              1.759
 Vibration     7          0.680              1.710              1.530
 Vibration     8          0.723              1.588              1.195
 Vibration     9          0.745              1.526              1.064
 Vibration    10          0.781              1.432              0.899
 Vibration    11          0.795              1.397              0.846
 Vibration    12          0.797              1.391              0.838
 Vibration    13          0.867              1.223              0.628
 Vibration    14          0.874              1.208              0.612
 Vibration    15          0.883              1.187              0.591
 Vibration    16          0.925              1.099              0.507

                           ! Non-Optimized Parameters !
 Normal termination of Gaussian 16 at Mon Nov  5 02:14:44 2018.
