 Gaussian 16, Revision A.03,
 Gaussian 16:  ES64L-G16RevA.03 25-Dec-2016

 ----------------------------------------------------------------------
 #M062X/6-311++G(2d,2p) opt=ModRedundant freq=noraman SCRF=(Solvent=Wat
 er)
 ----------------------------------------------------------------------

 ----------------------------
 D_1a_4a_L_PHI.inp_extract_23
 ----------------------------
 Symbolic Z-matrix:
 Charge =  0 Multiplicity = 1

 SCF Done:  E(RM062X) =  -617.489906657     A.U. after   12 cycles
 SCF Done:  E(RM062X) =  -617.489917121     A.U. after   11 cycles
 SCF Done:  E(RM062X) =  -617.491536522     A.U. after   11 cycles
 SCF Done:  E(RM062X) =  -617.491889379     A.U. after   10 cycles
 SCF Done:  E(RM062X) =  -617.492002465     A.U. after    9 cycles
 SCF Done:  E(RM062X) =  -617.492034355     A.U. after    9 cycles
 SCF Done:  E(RM062X) =  -617.492040539     A.U. after    9 cycles
 SCF Done:  E(RM062X) =  -617.492042595     A.U. after    8 cycles
 SCF Done:  E(RM062X) =  -617.492042929     A.U. after    7 cycles
 SCF Done:  E(RM062X) =  -617.492043011     A.U. after    7 cycles
 Optimization completed.
    -- Stationary point found.
 Normal termination of Gaussian 16 at Mon Nov  5 04:02:01 2018.

 ----------------------------------------------------------------------
 #N Geom=AllCheck Guess=TCheck SCRF=Check GenChk RM062X/6-311++G(2d,2p)
  Freq
 ----------------------------------------------------------------------

 Structure from the checkpoint file:  "D_1a_4a_L_PHI.inp_extract_23.chk"
 ----------------------------
 D_1a_4a_L_PHI.inp_extract_23
 ----------------------------
 Charge =  0 Multiplicity = 1

                         Standard orientation:
 ---------------------------------------------------------------------
 Center     Atomic      Atomic             Coordinates (Angstroms)
 Number     Number       Type             X           Y           Z
 ---------------------------------------------------------------------
      1          6           0        3.287111   -0.404228   -0.707689
      2          6           0        1.156297    0.309036    1.165136
      3          6           0       -1.760825    1.308216   -0.642542
      4          6           0        2.648395    0.968614   -0.878826
      5          6           0       -3.496569   -0.392783   -0.101218
      6          8           0       -2.482236   -1.344249    0.192210
      7          6           0        2.234097   -1.379962   -0.222701
      8          6           0       -0.711862    0.225890   -0.405472
      9          6           0       -3.017466    1.022599    0.177884
     10          6           0       -1.329321   -1.154043   -0.606661
     11          8           0        1.691475   -0.990887    1.038883
     12          8           0       -0.231053    0.342412    0.931352
     13          6           0        1.966332    1.388938    0.426729
     14          1           0        4.094462   -0.357134    0.026823
     15          1           0        3.709141   -0.762622   -1.646502
     16          1           0       -2.013825    1.313875   -1.705799
     17          1           0        3.397200    1.715074   -1.142252
     18          1           0        1.940738    0.934295   -1.708217
     19          1           0        1.440624   -1.475415   -0.970364
     20          1           0        2.652495   -2.370375   -0.056785
     21          1           0       -2.799058    1.120332    1.242214
     22          1           0       -3.807725    1.732336   -0.067223
     23          1           0       -1.583763   -1.282056   -1.666582
     24          1           0       -0.622598   -1.928507   -0.314714
     25          1           0        2.749883    1.696922    1.121194
     26          1           0        1.318252    2.252724    0.279524
     27          1           0        1.215692    0.514535    2.232193
     28          1           0       -3.789200   -0.490777   -1.154614
     29          1           0       -4.350904   -0.655993    0.518858
     30          1           0       -1.336536    2.281695   -0.397879
     31          1           0        0.102494    0.349224   -1.117264
 ---------------------------------------------------------------------

 SCF Done:  E(RM062X) =  -617.492043011     A.U. after    1 cycles

 The electronic state is 1-A.
 Alpha  occ. eigenvalues --  -19.63182 -19.62843 -19.62743 -10.63872 -10.58843
 Alpha  occ. eigenvalues --  -10.58251 -10.58014 -10.57889 -10.53604 -10.53465
 Alpha  occ. eigenvalues --  -10.53256 -10.53128 -10.52907  -1.19543  -1.16403
 Alpha  occ. eigenvalues --   -1.13341  -0.90612  -0.90513  -0.87344  -0.84630
 Alpha  occ. eigenvalues --   -0.74896  -0.74101  -0.73929  -0.71288  -0.66212
 Alpha  occ. eigenvalues --   -0.63067  -0.59548  -0.58085  -0.57223  -0.55365
 Alpha  occ. eigenvalues --   -0.54867  -0.53618  -0.52488  -0.50634  -0.50103
 Alpha  occ. eigenvalues --   -0.49708  -0.46864  -0.46359  -0.45589  -0.45165
 Alpha  occ. eigenvalues --   -0.43708  -0.42125  -0.41376  -0.40324  -0.38866
 Alpha  occ. eigenvalues --   -0.38472  -0.38106  -0.36640  -0.34395  -0.33736
 Alpha  occ. eigenvalues --   -0.31647
 Alpha virt. eigenvalues --   -0.00224   0.00673   0.00873   0.01189   0.02284
 Alpha virt. eigenvalues --    0.02560   0.02699   0.03193   0.03668   0.04598
 Alpha virt. eigenvalues --    0.04728   0.04871   0.05528   0.06046   0.07636

 Mulliken charges:
               1
     1  C   -0.373545
     2  C   -0.162484
     3  C   -0.543850
     4  C   -0.279900
     5  C   -0.179195
     6  O   -0.309653
     7  C   -0.203763
     8  C    0.047007
     9  C   -0.247376
    10  C   -0.379975
    11  O   -0.297360
    12  O   -0.253384
    13  C   -0.247753
    14  H    0.173167
    15  H    0.170517
    16  H    0.218500
    17  H    0.194787
    18  H    0.181271
    19  H    0.140852
    20  H    0.227306
    21  H    0.172988
    22  H    0.185845
    23  H    0.205029
    24  H    0.214359
    25  H    0.213913
    26  H    0.189387
    27  H    0.245835
    28  H    0.133563
    29  H    0.202024
    30  H    0.154223
    31  H    0.207666
 Sum of Mulliken charges =  -0.00000

 Dipole moment (field-independent basis, Debye):
    X=              1.7065    Y=              2.8445    Z=             -4.1932  Tot=              5.3466
 Quadrupole moment (field-independent basis, Debye-Ang):
   XX=            -72.4929   YY=            -81.9099   ZZ=            -81.1457
   XY=             -3.4371   XZ=              1.1449   YZ=              4.3065

  Exact polarizability: 173.405  -2.996 157.324  -1.564   2.793 152.689
 Approx polarizability: 146.791  -2.480 140.820  -0.102   1.161 144.287

                      1                      2                      3
                      A                      A                      A
 Frequencies --     37.4394                52.6853                94.1978
 Red. masses --      4.7838                 3.4984                 3.2206
 Frc consts  --      0.0040                 0.0057                 0.0168
 IR Inten    --      2.6028                 0.5162                 0.6975

                      4                      5                      6
                      A                      A                      A
 Frequencies --    128.8391               179.7931               203.5244
 Red. masses --      3.3983                 4.1043                 2.8817
 Frc consts  --      0.0332                 0.0782                 0.0703
 IR Inten    --      1.7143                 2.8841                 3.0130

                      7                      8                      9
                      A                      A                      A
 Frequencies --    219.9245               300.0366               339.8935
 Red. masses --      2.3230                 2.5048                 1.7841
 Frc consts  --      0.0662                 0.1329                 0.1214
 IR Inten    --     10.4486                 2.7120                 0.6178

                     10                     11                     12
                      A                      A                      A
 Frequencies --    363.2081               418.3785               421.0581
 Red. masses --      2.2145                 2.7115                 2.1530
 Frc consts  --      0.1721                 0.2796                 0.2249
 IR Inten    --      2.9656                 3.2304                 5.0059

                     13                     14                     15
                      A                      A                      A
 Frequencies --    442.2543               466.2167               512.9424
 Red. masses --      3.5328                 4.2481                 2.7485
 Frc consts  --      0.4071                 0.5440                 0.4261
 IR Inten    --      2.5950                 1.1539                 7.2152

                     16                     17                     18
                      A                      A                      A
 Frequencies --    526.2278               577.4771               683.4799
 Red. masses --      2.2774                 2.7803                 2.7105
 Frc consts  --      0.3716                 0.5463                 0.7460
 IR Inten    --      1.2326                25.5995                 9.0076

                     19                     20                     21
                      A                      A                      A
 Frequencies --    746.2652               784.4279               829.6736
 Red. masses --      2.9827                 2.4017                 2.1366
 Frc consts  --      0.9787                 0.8707                 0.8665
 IR Inten    --     14.6705                 2.7739                15.7404

                     22                     23                     24
                      A                      A                      A
 Frequencies --    860.9869               864.5340               876.7809
 Red. masses --      2.3547                 2.7822                 1.6650
 Frc consts  --      1.0285                 1.2252                 0.7541
 IR Inten    --     14.9107                 2.5424                13.1738

                     25                     26                     27
                      A                      A                      A
 Frequencies --    898.1517               903.9782               908.0063
 Red. masses --      2.6435                 2.2623                 2.3340
 Frc consts  --      1.2564                 1.0892                 1.1338
 IR Inten    --     27.6519                45.7629                26.0224

                     28                     29                     30
                      A                      A                      A
 Frequencies --    930.0745               949.3824               991.4560
 Red. masses --      1.9100                 1.6710                 1.9314
 Frc consts  --      0.9735                 0.8874                 1.1186
 IR Inten    --     20.6109                 4.6082                 6.1692

                     31                     32                     33
                      A                      A                      A
 Frequencies --   1025.6941              1048.7322              1057.6613
 Red. masses --      1.9902                 2.2570                 2.1156
 Frc consts  --      1.2336                 1.4626                 1.3944
 IR Inten    --     49.9251                 6.0489                96.7712

                     34                     35                     36
                      A                      A                      A
 Frequencies --   1063.7133              1082.1469              1089.3099
 Red. masses --      2.1514                 2.4052                 1.6075
 Frc consts  --      1.4342                 1.6595                 1.1238
 IR Inten    --    106.9362               239.5471                25.1490

                     37                     38                     39
                      A                      A                      A
 Frequencies --   1103.2942              1147.5404              1151.3995
 Red. masses --      1.6084                 2.6007                 2.6057
 Frc consts  --      1.1536                 2.0178                 2.0353
 IR Inten    --     15.9293               154.6424                22.2392

                     40                     41                     42
                      A                      A                      A
 Frequencies --   1165.9521              1187.0027              1218.7231
 Red. masses --      2.3357                 2.9309                 1.5322
 Frc consts  --      1.8708                 2.4331                 1.3408
 IR Inten    --     15.3138               156.4135                80.6493

                     43                     44                     45
                      A                      A                      A
 Frequencies --   1227.9746              1242.6235              1248.9901
 Red. masses --      1.3541                 1.7036                 1.8409
 Frc consts  --      1.2031                 1.5499                 1.6920
 IR Inten    --      5.5941                25.0888               100.0731

                     46                     47                     48
                      A                      A                      A
 Frequencies --   1301.6943              1303.8433              1323.9624
 Red. masses --      1.1354                 1.2437                 1.1979
 Frc consts  --      1.1335                 1.2457                 1.2372
 IR Inten    --      2.2897                65.2483                13.8631

                     49                     50                     51
                      A                      A                      A
 Frequencies --   1338.9627              1358.6867              1366.0126
 Red. masses --      1.2375                 1.5558                 1.3135
 Frc consts  --      1.3071                 1.6922                 1.4441
 IR Inten    --     11.4745                 4.8212                 3.6510

                     52                     53                     54
                      A                      A                      A
 Frequencies --   1368.5644              1386.0017              1388.6127
 Red. masses --      1.4019                 1.4773                 1.3848
 Frc consts  --      1.5470                 1.6721                 1.5733
 IR Inten    --      1.3417                 5.7531                 4.5283

                     55                     56                     57
                      A                      A                      A
 Frequencies --   1392.7303              1403.2643              1405.6953
 Red. masses --      1.6139                 1.3537                 1.3245
 Frc consts  --      1.8444                 1.5706                 1.5420
 IR Inten    --     10.2288                 1.4185                 6.7325

                     58                     59                     60
                      A                      A                      A
 Frequencies --   1414.9111              1425.9672              1434.4193
 Red. masses --      1.3834                 1.3741                 1.3500
 Frc consts  --      1.6317                 1.6462                 1.6366
 IR Inten    --     22.4648                26.1568                 2.4774

                     61                     62                     63
                      A                      A                      A
 Frequencies --   1452.2784              1475.6233              1477.0004
 Red. masses --      1.1734                 1.0966                 1.0908
 Frc consts  --      1.4582                 1.4069                 1.4020
 IR Inten    --      4.4790                 5.7351                 5.1489

                     64                     65                     66
                      A                      A                      A
 Frequencies --   1483.9438              1485.3102              1489.8596
 Red. masses --      1.0960                 1.1141                 1.0876
 Frc consts  --      1.4220                 1.4481                 1.4223
 IR Inten    --      8.8679                19.0826                 1.9776

                     67                     68                     69
                      A                      A                      A
 Frequencies --   1510.3323              1511.6435              1523.8544
 Red. masses --      1.0996                 1.0964                 1.0909
 Frc consts  --      1.4778                 1.4761                 1.4925
 IR Inten    --      6.3712                12.9760                 3.7297

                     70                     71                     72
                      A                      A                      A
 Frequencies --   3012.2521              3017.6966              3049.1742
 Red. masses --      1.0707                 1.0696                 1.0690
 Frc consts  --      5.7238                 5.7388                 5.8561
 IR Inten    --     74.8433                80.5484                54.1333

                     73                     74                     75
                      A                      A                      A
 Frequencies --   3065.6445              3066.7589              3074.0529
 Red. masses --      1.0641                 1.0638                 1.0664
 Frc consts  --      5.8923                 5.8949                 5.9372
 IR Inten    --     35.8501                35.2850                13.8750

                     76                     77                     78
                      A                      A                      A
 Frequencies --   3076.6686              3080.2642              3111.6874
 Red. masses --      1.0611                 1.0604                 1.0977
 Frc consts  --      5.9181                 5.9278                 6.2621
 IR Inten    --     26.8764                28.2551                52.9110

                     79                     80                     81
                      A                      A                      A
 Frequencies --   3114.4593              3117.5145              3120.9400
 Red. masses --      1.0876                 1.0995                 1.1007
 Frc consts  --      6.2158                 6.2957                 6.3169
 IR Inten    --     53.8326                40.0745                27.8954

                     82                     83                     84
                      A                      A                      A
 Frequencies --   3125.2854              3126.1686              3128.9858
 Red. masses --      1.1013                 1.1009                 1.0956
 Frc consts  --      6.3375                 6.3389                 6.3202
 IR Inten    --     99.3258                 6.7879                57.2642

                     85                     86                     87
                      A                      A                      A
 Frequencies --   3130.8932              3135.2255              3139.2969
 Red. masses --      1.0965                 1.0934                 1.0870
 Frc consts  --      6.3329                 6.3326                 6.3118
 IR Inten    --     44.7626                36.1890                32.5670

 - Thermochemistry -
 -------------------
 Temperature   298.150 Kelvin.  Pressure   1.00000 Atm.
 Atom     1 has atomic number  6 and mass  12.00000

 Molecular mass:   186.12559 amu.
 Principal axes and moments of inertia in atomic units:
                           1         2         3
     Eigenvalues --  1067.195533696.782074033.39687
           X            0.99998  -0.00548  -0.00384
           Y            0.00562   0.99931   0.03682
           Z            0.00364  -0.03684   0.99931
 This molecule is an asymmetric top.
 Rotational symmetry number  1.
 Warning -- assumption of classical behavior for rotation
           may cause significant error
 Rotational temperatures (Kelvin)      0.08116     0.02343     0.02147
 Rotational constants (GHZ):           1.69111     0.48819     0.44745
 Zero-point vibrational energy     737427.2 (Joules/Mol)
                                  176.24932 (Kcal/Mol)
 Warning -- explicit consideration of  17 degrees of freedom as
           vibrations may cause significant error
 Vibrational temperatures:     53.87    75.80   135.53   185.37   258.68
          (Kelvin)            292.83   316.42   431.69   489.03   522.58
                              601.95   605.81   636.31   670.78   738.01
                              757.12   830.86   983.38  1073.71  1128.62
                             1193.72  1238.77  1243.87  1261.49  1292.24
                             1300.62  1306.42  1338.17  1365.95  1426.48
                             1475.75  1508.89  1521.74  1530.45  1556.97
                             1567.27  1587.39  1651.05  1656.61  1677.55
                             1707.83  1753.47  1766.78  1787.86  1797.02
                             1872.85  1875.94  1904.89  1926.47  1954.85
                             1965.39  1969.06  1994.15  1997.90  2003.83
                             2018.98  2022.48  2035.74  2051.65  2063.81
                             2089.50  2123.09  2125.07  2135.06  2137.03
                             2143.58  2173.03  2174.92  2192.49  4333.96
                             4341.79  4387.08  4410.78  4412.38  4422.88
                             4426.64  4431.81  4477.02  4481.01  4485.41
                             4490.34  4496.59  4497.86  4501.91  4504.66
                             4510.89  4516.75

 Zero-point correction=                           0.280871 (Hartree/Particle)
 Thermal correction to Energy=                    0.292684
 Thermal correction to Enthalpy=                  0.293628
 Thermal correction to Gibbs Free Energy=         0.242308
 Sum of electronic and zero-point Energies=           -617.211172
 Sum of electronic and thermal Energies=              -617.199359
 Sum of electronic and thermal Enthalpies=            -617.198415
 Sum of electronic and thermal Free Energies=         -617.249735

                     E (Thermal)             CV                S
                      KCal/Mol        Cal/Mol-Kelvin    Cal/Mol-Kelvin
 Total                  183.662             46.747            108.012
 Electronic               0.000              0.000              0.000
 Translational            0.889              2.981             41.570
 Rotational               0.889              2.981             31.143
 Vibrational            181.885             40.785             35.299
 Vibration     1          0.594              1.982              5.390
 Vibration     2          0.596              1.977              4.714
 Vibration     3          0.603              1.953              3.571
 Vibration     4          0.611              1.924              2.963
 Vibration     5          0.629              1.867              2.331
 Vibration     6          0.639              1.835              2.101
 Vibration     7          0.647              1.811              1.960
 Vibration     8          0.693              1.674              1.417
 Vibration     9          0.720              1.596              1.213
 Vibration    10          0.737              1.548              1.108
 Vibration    11          0.781              1.430              0.897
 Vibration    12          0.784              1.424              0.888
 Vibration    13          0.802              1.378              0.820
 Vibration    14          0.824              1.325              0.748
 Vibration    15          0.868              1.221              0.627
 Vibration    16          0.881              1.192              0.596
 Vibration    17          0.934              1.080              0.490

 Optimization completed.
    -- Stationary point found.
 Normal termination of Gaussian 16 at Mon Nov  5 05:02:34 2018.
