 Gaussian 16, Revision A.03,
 Gaussian 16:  ES64L-G16RevA.03 25-Dec-2016

 ----------------------------------------------------------------------
 #M062X/6-311++G(2d,2p) opt=ModRedundant freq=noraman SCRF=(Solvent=Wat
 er)
 ----------------------------------------------------------------------

 ----------------------------
 D_1a_4a_L_PHI.inp_extract_20
 ----------------------------
 Symbolic Z-matrix:
 Charge =  0 Multiplicity = 1

 SCF Done:  E(RM062X) =  -617.490460726     A.U. after   12 cycles
 SCF Done:  E(RM062X) =  -617.490891613     A.U. after   11 cycles
 SCF Done:  E(RM062X) =  -617.491895328     A.U. after   11 cycles
 SCF Done:  E(RM062X) =  -617.492163814     A.U. after   10 cycles
 SCF Done:  E(RM062X) =  -617.492209544     A.U. after    9 cycles
 SCF Done:  E(RM062X) =  -617.492213759     A.U. after    8 cycles
 SCF Done:  E(RM062X) =  -617.492213944     A.U. after    8 cycles
 SCF Done:  E(RM062X) =  -617.492213958     A.U. after    8 cycles
 Optimization completed.
    -- Stationary point found.
 Normal termination of Gaussian 16 at Mon Nov  5 03:33:24 2018.

 ----------------------------------------------------------------------
 #N Geom=AllCheck Guess=TCheck SCRF=Check GenChk RM062X/6-311++G(2d,2p)
  Freq
 ----------------------------------------------------------------------

 Structure from the checkpoint file:  "D_1a_4a_L_PHI.inp_extract_20.chk"
 ----------------------------
 D_1a_4a_L_PHI.inp_extract_20
 ----------------------------
 Charge =  0 Multiplicity = 1

                         Standard orientation:
 ---------------------------------------------------------------------
 Center     Atomic      Atomic             Coordinates (Angstroms)
 Number     Number       Type             X           Y           Z
 ---------------------------------------------------------------------
      1          6           0       -3.336649   -0.392844    0.669885
      2          6           0       -1.142291    0.418638   -1.076178
      3          6           0        1.746818    1.342745    0.376140
      4          6           0       -2.506179    0.814653    1.096758
      5          6           0        3.544695   -0.342829   -0.009594
      6          8           0        2.583019   -1.388916    0.032217
      7          6           0       -2.465568   -1.324959   -0.150000
      8          6           0        0.766944    0.175559    0.502073
      9          6           0        2.926109    0.951431   -0.513169
     10          6           0        1.516071   -1.084483    0.910697
     11          8           0       -2.006647   -0.664935   -1.325303
     12          8           0        0.138761   -0.083506   -0.748408
     13          6           0       -1.775468    1.424581   -0.106908
     14          1           0       -4.182001   -0.075945    0.055150
     15          1           0       -3.733649   -0.917468    1.538938
     16          1           0        2.108583    1.599203    1.375331
     17          1           0       -3.138175    1.578758    1.548625
     18          1           0       -1.805180    0.498059    1.869553
     19          1           0       -1.607578   -1.670652    0.437582
     20          1           0       -3.014531   -2.198665   -0.493416
     21          1           0        2.584500    0.805342   -1.538799
     22          1           0        3.680433    1.738324   -0.522064
     23          1           0        1.900024   -0.950755    1.929540
     24          1           0        0.843994   -1.940625    0.896358
     25          1           0       -2.509254    1.965960   -0.706518
     26          1           0       -1.032165    2.156090    0.208338
     27          1           0       -1.029396    0.894557   -2.049522
     28          1           0        3.960297   -0.195609    0.995624
     29          1           0        4.342423   -0.686491   -0.664698
     30          1           0        1.232237    2.217805   -0.020583
     31          1           0        0.031491    0.386013    1.274291
 ---------------------------------------------------------------------

 SCF Done:  E(RM062X) =  -617.492213958     A.U. after    1 cycles

 The electronic state is 1-A.
 Alpha  occ. eigenvalues --  -19.62921 -19.62856 -19.62722 -10.63894 -10.58933
 Alpha  occ. eigenvalues --  -10.58120 -10.57932 -10.57896 -10.53768 -10.53491
 Alpha  occ. eigenvalues --  -10.53221 -10.52994 -10.52897  -1.19620  -1.16487
 Alpha  occ. eigenvalues --   -1.13179  -0.90421  -0.90269  -0.87390  -0.84877
 Alpha  occ. eigenvalues --   -0.74897  -0.74179  -0.73494  -0.71146  -0.66559
 Alpha  occ. eigenvalues --   -0.62557  -0.59621  -0.58605  -0.57258  -0.55795
 Alpha  occ. eigenvalues --   -0.54733  -0.53189  -0.52332  -0.50986  -0.50027
 Alpha  occ. eigenvalues --   -0.49144  -0.46701  -0.46186  -0.45655  -0.45165
 Alpha  occ. eigenvalues --   -0.44071  -0.42491  -0.41019  -0.40211  -0.39172
 Alpha  occ. eigenvalues --   -0.38566  -0.37392  -0.36621  -0.35211  -0.33046
 Alpha  occ. eigenvalues --   -0.31713
 Alpha virt. eigenvalues --   -0.00201   0.00758   0.00851   0.01187   0.02270
 Alpha virt. eigenvalues --    0.02623   0.02644   0.03352   0.03601   0.04668
 Alpha virt. eigenvalues --    0.04746   0.04861   0.05622   0.05932   0.07393

 Mulliken charges:
               1
     1  C   -0.324896
     2  C   -0.121126
     3  C   -0.404277
     4  C   -0.284060
     5  C   -0.232299
     6  O   -0.311246
     7  C   -0.187004
     8  C    0.014822
     9  C   -0.227636
    10  C   -0.401748
    11  O   -0.257771
    12  O   -0.334184
    13  C   -0.310249
    14  H    0.172520
    15  H    0.162920
    16  H    0.219304
    17  H    0.189407
    18  H    0.163657
    19  H    0.101732
    20  H    0.225998
    21  H    0.168490
    22  H    0.185088
    23  H    0.188258
    24  H    0.224053
    25  H    0.224670
    26  H    0.180674
    27  H    0.252107
    28  H    0.137932
    29  H    0.202334
    30  H    0.140479
    31  H    0.242055
 Sum of Mulliken charges =  -0.00000

 Dipole moment (field-independent basis, Debye):
    X=             -0.8019    Y=              3.5312    Z=              4.0747  Tot=              5.4512
 Quadrupole moment (field-independent basis, Debye-Ang):
   XX=            -74.7265   YY=            -80.8196   ZZ=            -81.8689
   XY=              4.9509   XZ=             -2.1648   YZ=             -4.2670

  Exact polarizability: 173.695   3.037 156.619  -1.519  -2.121 153.333
 Approx polarizability: 147.165   2.027 141.281   0.491  -0.557 143.540

 ******    1 imaginary frequencies (negative Signs) ******

                      1                      2                      3
                      A                      A                      A
 Frequencies --    -60.6080                49.8067               100.5422
 Red. masses --      3.9497                 4.0510                 3.5212
 Frc consts  --      0.0085                 0.0059                 0.0210
 IR Inten    --      2.2437                 0.1875                 0.3742

                      4                      5                      6
                      A                      A                      A
 Frequencies --    134.4745               195.5911               212.0104
 Red. masses --      3.6583                 2.9456                 3.2830
 Frc consts  --      0.0390                 0.0664                 0.0869
 IR Inten    --      2.3006                 1.2408                 9.6781

                      7                      8                      9
                      A                      A                      A
 Frequencies --    250.1938               290.5407               339.0144
 Red. masses --      2.5732                 2.3726                 1.8982
 Frc consts  --      0.0949                 0.1180                 0.1285
 IR Inten    --      2.7218                 0.2439                 2.1545

                     10                     11                     12
                      A                      A                      A
 Frequencies --    374.1967               419.4406               426.8999
 Red. masses --      2.2816                 2.1486                 2.7719
 Frc consts  --      0.1882                 0.2227                 0.2976
 IR Inten    --      6.6498                10.2573                 2.4376

                     13                     14                     15
                      A                      A                      A
 Frequencies --    435.5479               484.9591               519.3849
 Red. masses --      3.1420                 3.7618                 3.0630
 Frc consts  --      0.3512                 0.5213                 0.4868
 IR Inten    --      3.7760                 4.2735                11.1350

                     16                     17                     18
                      A                      A                      A
 Frequencies --    525.6622               549.2717               672.1747
 Red. masses --      2.6810                 2.1126                 2.5621
 Frc consts  --      0.4365                 0.3755                 0.6820
 IR Inten    --      2.4666                12.8977                 3.7158

                     19                     20                     21
                      A                      A                      A
 Frequencies --    757.0406               798.6233               830.9572
 Red. masses --      2.6639                 2.3132                 2.1960
 Frc consts  --      0.8995                 0.8693                 0.8934
 IR Inten    --      5.3096                 3.0273                11.7488

                     22                     23                     24
                      A                      A                      A
 Frequencies --    853.7519               864.2866               878.0527
 Red. masses --      3.3133                 2.0805                 1.7521
 Frc consts  --      1.4229                 0.9157                 0.7959
 IR Inten    --      6.0238                 6.9566                17.2152

                     25                     26                     27
                      A                      A                      A
 Frequencies --    898.5248               900.0608               913.5627
 Red. masses --      2.3377                 2.4530                 2.3594
 Frc consts  --      1.1120                 1.1708                 1.1602
 IR Inten    --     37.9689                25.9178                43.8522

                     28                     29                     30
                      A                      A                      A
 Frequencies --    925.2715               944.2777               990.2379
 Red. masses --      2.0029                 1.7373                 1.9825
 Frc consts  --      1.0103                 0.9127                 1.1454
 IR Inten    --     30.5552                 9.3756                22.5943

                     31                     32                     33
                      A                      A                      A
 Frequencies --   1028.7297              1043.3194              1061.5687
 Red. masses --      1.9774                 2.3122                 2.2852
 Frc consts  --      1.2330                 1.4829                 1.5173
 IR Inten    --     33.8317                77.3181                71.9175

                     34                     35                     36
                      A                      A                      A
 Frequencies --   1066.1178              1072.1480              1082.4590
 Red. masses --      1.9865                 2.0735                 1.6924
 Frc consts  --      1.3303                 1.4043                 1.1684
 IR Inten    --    254.8527                 9.6841                71.5885

                     37                     38                     39
                      A                      A                      A
 Frequencies --   1101.1995              1148.0704              1154.8737
 Red. masses --      1.5596                 2.5327                 2.6418
 Frc consts  --      1.1143                 1.9669                 2.0759
 IR Inten    --     24.0720                24.4307               176.0722

                     40                     41                     42
                      A                      A                      A
 Frequencies --   1166.2428              1187.6031              1218.3516
 Red. masses --      2.4494                 3.3040                 1.4854
 Frc consts  --      1.9628                 2.7456                 1.2991
 IR Inten    --      8.8681               164.7184                74.5417

                     43                     44                     45
                      A                      A                      A
 Frequencies --   1227.1569              1239.4057              1248.1255
 Red. masses --      1.3450                 1.6954                 1.8703
 Frc consts  --      1.1933                 1.5344                 1.7167
 IR Inten    --     13.1343                13.3742                83.7360

                     46                     47                     48
                      A                      A                      A
 Frequencies --   1299.7086              1301.6108              1319.1700
 Red. masses --      1.2451                 1.1161                 1.1790
 Frc consts  --      1.2392                 1.1141                 1.2089
 IR Inten    --     54.5355                 5.7522                10.4007

                     49                     50                     51
                      A                      A                      A
 Frequencies --   1337.6901              1355.3072              1364.5954
 Red. masses --      1.2743                 1.4260                 1.3444
 Frc consts  --      1.3435                 1.5432                 1.4749
 IR Inten    --     12.5391                16.1343                 3.6046

                     52                     53                     54
                      A                      A                      A
 Frequencies --   1368.5483              1386.1204              1386.4743
 Red. masses --      1.3580                 1.3881                 1.5074
 Frc consts  --      1.4986                 1.5713                 1.7073
 IR Inten    --      3.9887                 2.3251                 7.0516

                     55                     56                     57
                      A                      A                      A
 Frequencies --   1390.6089              1399.6121              1405.8896
 Red. masses --      1.5979                 1.2987                 1.3654
 Frc consts  --      1.8206                 1.4989                 1.5901
 IR Inten    --      6.5156                13.9182                 2.0388

                     58                     59                     60
                      A                      A                      A
 Frequencies --   1410.4601              1421.6539              1432.2923
 Red. masses --      1.4217                 1.3323                 1.3796
 Frc consts  --      1.6664                 1.5865                 1.6675
 IR Inten    --     15.8256                22.9983                 1.5452

                     61                     62                     63
                      A                      A                      A
 Frequencies --   1437.7581              1476.1119              1478.7914
 Red. masses --      1.2766                 1.0895                 1.0969
 Frc consts  --      1.5548                 1.3987                 1.4133
 IR Inten    --      7.1139                 4.7584                 3.4513

                     64                     65                     66
                      A                      A                      A
 Frequencies --   1484.2421              1486.2556              1491.3695
 Red. masses --      1.1055                 1.0944                 1.0875
 Frc consts  --      1.4350                 1.4244                 1.4252
 IR Inten    --      6.1377                26.7618                 2.5857

                     67                     68                     69
                      A                      A                      A
 Frequencies --   1505.4282              1510.5889              1515.3227
 Red. masses --      1.0985                 1.1016                 1.0942
 Frc consts  --      1.4668                 1.4810                 1.4803
 IR Inten    --     13.3687                 6.5257                 6.1681

                     70                     71                     72
                      A                      A                      A
 Frequencies --   3012.5980              3024.5490              3036.9442
 Red. masses --      1.0707                 1.0689                 1.0699
 Frc consts  --      5.7251                 5.7614                 5.8138
 IR Inten    --     79.1210                69.2366                59.2935

                     73                     74                     75
                      A                      A                      A
 Frequencies --   3064.4394              3067.9949              3077.4565
 Red. masses --      1.0642                 1.0633                 1.0682
 Frc consts  --      5.8882                 5.8970                 5.9603
 IR Inten    --     36.0579                34.9371                11.2973

                     76                     77                     78
                      A                      A                      A
 Frequencies --   3080.3134              3080.6038              3100.5292
 Red. masses --      1.0606                 1.0615                 1.0858
 Frc consts  --      5.9293                 5.9353                 6.1498
 IR Inten    --     31.3867                15.3161                78.9111

                     79                     80                     81
                      A                      A                      A
 Frequencies --   3113.7983              3115.9909              3122.2665
 Red. masses --      1.0979                 1.0992                 1.1020
 Frc consts  --      6.2718                 6.2878                 6.3297
 IR Inten    --     26.7958                46.8388                69.5233

                     82                     83                     84
                      A                      A                      A
 Frequencies --   3125.1908              3129.1489              3130.0740
 Red. masses --      1.1017                 1.0961                 1.0991
 Frc consts  --      6.3397                 6.3236                 6.3448
 IR Inten    --     77.5094                13.0413                41.4386

                     85                     86                     87
                      A                      A                      A
 Frequencies --   3131.6492              3136.0617              3154.0683
 Red. masses --      1.0965                 1.0953                 1.0829
 Frc consts  --      6.3360                 6.3467                 6.3473
 IR Inten    --     44.6570                44.2410                35.4789

 - Thermochemistry -
 -------------------
 Temperature   298.150 Kelvin.  Pressure   1.00000 Atm.
 Atom     1 has atomic number  6 and mass  12.00000

 Molecular mass:   186.12559 amu.
 Principal axes and moments of inertia in atomic units:
                           1         2         3
     Eigenvalues --  1054.874523845.319064083.26385
           X            0.99993   0.00777  -0.00888
           Y           -0.00818   0.99886  -0.04701
           Z            0.00851   0.04708   0.99885
 This molecule is an asymmetric top.
 Rotational symmetry number  1.
 Warning -- assumption of classical behavior for rotation
           may cause significant error
 Rotational temperatures (Kelvin)      0.08211     0.02252     0.02121
 Rotational constants (GHZ):           1.71086     0.46933     0.44198
    1 imaginary frequencies ignored.
 Zero-point vibrational energy     737192.8 (Joules/Mol)
                                  176.19332 (Kcal/Mol)
 Warning -- explicit consideration of  16 degrees of freedom as
           vibrations may cause significant error
 Vibrational temperatures:     71.66   144.66   193.48   281.41   305.04
          (Kelvin)            359.97   418.02   487.77   538.39   603.48
                              614.21   626.66   697.75   747.28   756.31
                              790.28   967.11  1089.21  1149.04  1195.56
                             1228.36  1243.52  1263.32  1292.78  1294.99
                             1314.41  1331.26  1358.60  1424.73  1480.11
                             1501.10  1527.36  1533.91  1542.58  1557.42
                             1584.38  1651.82  1661.61  1677.96  1708.70
                             1752.94  1765.61  1783.23  1795.77  1869.99
                             1872.73  1897.99  1924.64  1949.98  1963.35
                             1969.04  1994.32  1994.83  2000.78  2013.73
                             2022.76  2029.34  2045.44  2060.75  2068.61
                             2123.80  2127.65  2135.49  2138.39  2145.75
                             2165.98  2173.40  2180.21  4334.46  4351.65
                             4369.49  4409.04  4414.16  4427.77  4431.88
                             4432.30  4460.97  4480.06  4483.22  4492.25
                             4496.45  4502.15  4503.48  4505.74  4512.09
                             4538.00

 Zero-point correction=                           0.280782 (Hartree/Particle)
 Thermal correction to Energy=                    0.291637
 Thermal correction to Enthalpy=                  0.292581
 Thermal correction to Gibbs Free Energy=         0.244065
 Sum of electronic and zero-point Energies=           -617.211432
 Sum of electronic and thermal Energies=              -617.200577
 Sum of electronic and thermal Enthalpies=            -617.199633
 Sum of electronic and thermal Free Energies=         -617.248149

                     E (Thermal)             CV                S
                      KCal/Mol        Cal/Mol-Kelvin    Cal/Mol-Kelvin
 Total                  183.005             44.707            102.110
 Electronic               0.000              0.000              0.000
 Translational            0.889              2.981             41.570
 Rotational               0.889              2.981             31.183
 Vibrational            181.227             38.746             29.357
 Vibration     1          0.595              1.978              4.825
 Vibration     2          0.604              1.949              3.444
 Vibration     3          0.613              1.919              2.881
 Vibration     4          0.636              1.846              2.174
 Vibration     5          0.643              1.823              2.026
 Vibration     6          0.663              1.762              1.729
 Vibration     7          0.687              1.691              1.471
 Vibration     8          0.719              1.598              1.217
 Vibration     9          0.745              1.525              1.063
 Vibration    10          0.782              1.428              0.894
 Vibration    11          0.789              1.412              0.869
 Vibration    12          0.796              1.393              0.841
 Vibration    13          0.841              1.283              0.697
 Vibration    14          0.874              1.207              0.611
 Vibration    15          0.881              1.193              0.597
 Vibration    16          0.905              1.141              0.546

 Optimization completed.
    -- Stationary point found.
 Normal termination of Gaussian 16 at Mon Nov  5 04:32:14 2018.
