 Gaussian 16, Revision A.03,
 Gaussian 16:  ES64L-G16RevA.03 25-Dec-2016

 ----------------------------------------------------------------------
 #M062X/6-311++G(2d,2p) opt=ModRedundant freq=noraman SCRF=(Solvent=Wat
 er)
 ----------------------------------------------------------------------

 ---------------------------
 D_1a_4a_L_PHI.inp_extract_3
 ---------------------------
 Symbolic Z-matrix:
 Charge =  0 Multiplicity = 1

 SCF Done:  E(RM062X) =  -617.487390425     A.U. after   13 cycles
 SCF Done:  E(RM062X) =  -617.488201768     A.U. after   11 cycles
 SCF Done:  E(RM062X) =  -617.488733950     A.U. after   11 cycles
 SCF Done:  E(RM062X) =  -617.489300199     A.U. after   10 cycles
 SCF Done:  E(RM062X) =  -617.489410366     A.U. after    9 cycles
 SCF Done:  E(RM062X) =  -617.489426142     A.U. after    9 cycles
 SCF Done:  E(RM062X) =  -617.489429782     A.U. after    8 cycles
 SCF Done:  E(RM062X) =  -617.489431439     A.U. after    8 cycles
 SCF Done:  E(RM062X) =  -617.489431856     A.U. after    8 cycles
 SCF Done:  E(RM062X) =  -617.489432201     A.U. after    8 cycles
 SCF Done:  E(RM062X) =  -617.489432318     A.U. after    7 cycles
 Optimization completed.
    -- Stationary point found.
 Normal termination of Gaussian 16 at Mon Nov  5 04:08:23 2018.

 ----------------------------------------------------------------------
 #N Geom=AllCheck Guess=TCheck SCRF=Check GenChk RM062X/6-311++G(2d,2p)
  Freq
 ----------------------------------------------------------------------

 Structure from the checkpoint file:  "D_1a_4a_L_PHI.inp_extract_3.chk"
 ---------------------------
 D_1a_4a_L_PHI.inp_extract_3
 ---------------------------
 Charge =  0 Multiplicity = 1

                         Standard orientation:
 ---------------------------------------------------------------------
 Center     Atomic      Atomic             Coordinates (Angstroms)
 Number     Number       Type             X           Y           Z
 ---------------------------------------------------------------------
      1          6           0        3.336271   -0.221827   -0.717103
      2          6           0        1.091921    0.039972    1.106830
      3          6           0       -1.749695    1.100354   -1.036984
      4          6           0        2.763157    1.155940   -0.403818
      5          6           0       -3.523201   -0.192603    0.140203
      6          8           0       -2.544881   -1.105031    0.618478
      7          6           0        2.237649   -1.265441   -0.635357
      8          6           0       -0.747625    0.049568   -0.567431
      9          6           0       -2.930252    1.191104   -0.071706
     10          6           0       -1.476112   -1.265127   -0.297455
     11          8           0        1.462827   -1.202042    0.569267
     12          8           0       -0.133747    0.570622    0.601470
     13          6           0        2.174163    1.104087    0.999460
     14          1           0        4.124151   -0.456421    0.002072
     15          1           0        3.775076   -0.263302   -1.714009
     16          1           0       -2.110032    0.805971   -2.025684
     17          1           0        3.533540    1.923007   -0.466890
     18          1           0        1.986131    1.415593   -1.128950
     19          1           0        1.580293   -1.175467   -1.502118
     20          1           0        2.652396   -2.271352   -0.643045
     21          1           0       -2.598311    1.588002    0.888370
     22          1           0       -3.696878    1.860639   -0.462585
     23          1           0       -1.858204   -1.653489   -1.250677
     24          1           0       -0.797845   -1.994388    0.135667
     25          1           0        2.964123    0.859574    1.713258
     26          1           0        1.735551    2.053807    1.300230
     27          1           0        0.891255   -0.175295    2.156754
     28          1           0       -3.937748   -0.571831   -0.802975
     29          1           0       -4.318066   -0.177764    0.883190
     30          1           0       -1.244141    2.059937   -1.141076
     31          1           0       -0.012542   -0.111774   -1.355079
 ---------------------------------------------------------------------

 SCF Done:  E(RM062X) =  -617.489432318     A.U. after    1 cycles

 The electronic state is 1-A.
 Alpha  occ. eigenvalues --  -19.63631 -19.62644 -19.62176 -10.63779 -10.58694
 Alpha  occ. eigenvalues --  -10.58390 -10.57759 -10.57476 -10.53299 -10.53219
 Alpha  occ. eigenvalues --  -10.53107 -10.53002 -10.52764  -1.19342  -1.16175
 Alpha  occ. eigenvalues --   -1.13006  -0.91056  -0.90187  -0.87176  -0.84476
 Alpha  occ. eigenvalues --   -0.74759  -0.74042  -0.73474  -0.71144  -0.65865
 Alpha  occ. eigenvalues --   -0.62766  -0.59610  -0.57995  -0.57390  -0.55103
 Alpha  occ. eigenvalues --   -0.53992  -0.53570  -0.52791  -0.51174  -0.49628
 Alpha  occ. eigenvalues --   -0.48114  -0.47158  -0.46497  -0.45501  -0.45144
 Alpha  occ. eigenvalues --   -0.43430  -0.42535  -0.40680  -0.40067  -0.39372
 Alpha  occ. eigenvalues --   -0.38818  -0.37921  -0.36136  -0.34307  -0.33391
 Alpha  occ. eigenvalues --   -0.30953
 Alpha virt. eigenvalues --   -0.00227   0.00772   0.00870   0.01125   0.02236
 Alpha virt. eigenvalues --    0.02535   0.02683   0.03226   0.03443   0.04590
 Alpha virt. eigenvalues --    0.04712   0.04856   0.05540   0.06064   0.07010

 Mulliken charges:
               1
     1  C   -0.410767
     2  C   -0.213885
     3  C   -0.591882
     4  C   -0.268555
     5  C   -0.177329
     6  O   -0.298548
     7  C   -0.141869
     8  C    0.030134
     9  C   -0.234893
    10  C   -0.371357
    11  O   -0.272281
    12  O   -0.205856
    13  C   -0.229318
    14  H    0.170374
    15  H    0.181320
    16  H    0.219356
    17  H    0.205526
    18  H    0.165871
    19  H    0.155350
    20  H    0.206845
    21  H    0.165937
    22  H    0.181029
    23  H    0.178946
    24  H    0.239757
    25  H    0.188792
    26  H    0.181820
    27  H    0.235671
    28  H    0.135299
    29  H    0.203882
    30  H    0.163554
    31  H    0.207080
 Sum of Mulliken charges =  -0.00000

 Dipole moment (field-independent basis, Debye):
    X=              2.0300    Y=              1.4718    Z=             -3.4718  Tot=              4.2826
 Quadrupole moment (field-independent basis, Debye-Ang):
   XX=            -71.6909   YY=            -82.9225   ZZ=            -79.0515
   XY=             -3.0336   XZ=              3.1005   YZ=              3.6780

  Exact polarizability: 171.947  -3.346 156.924  -1.128   3.318 155.149
 Approx polarizability: 145.451  -3.268 141.238   0.091   1.870 145.053

 ******    1 imaginary frequencies (negative Signs) ******

                      1                      2                      3
                      A                      A                      A
 Frequencies --    -81.4718                38.9008               100.0115
 Red. masses --      4.1162                 4.2114                 3.5336
 Frc consts  --      0.0161                 0.0038                 0.0208
 IR Inten    --      3.8906                 2.0795                 1.3846

                      4                      5                      6
                      A                      A                      A
 Frequencies --    107.6828               179.9971               211.0338
 Red. masses --      3.0062                 4.3087                 3.1363
 Frc consts  --      0.0205                 0.0822                 0.0823
 IR Inten    --      2.4145                 2.9583                 3.5460

                      7                      8                      9
                      A                      A                      A
 Frequencies --    233.1641               281.8578               330.9724
 Red. masses --      2.9626                 2.4250                 2.0854
 Frc consts  --      0.0949                 0.1135                 0.1346
 IR Inten    --     12.8912                 9.9024                 3.3338

                     10                     11                     12
                      A                      A                      A
 Frequencies --    360.0645               401.7235               428.6959
 Red. masses --      2.2934                 1.9646                 2.6956
 Frc consts  --      0.1752                 0.1868                 0.2919
 IR Inten    --      0.7921                 4.3070                 1.8218

                     13                     14                     15
                      A                      A                      A
 Frequencies --    439.3986               472.2527               521.6206
 Red. masses --      2.7068                 3.8086                 2.3304
 Frc consts  --      0.3079                 0.5005                 0.3736
 IR Inten    --      5.1759                 3.8143                 0.8545

                     16                     17                     18
                      A                      A                      A
 Frequencies --    521.9405               583.8754               693.5320
 Red. masses --      2.6290                 2.4759                 2.9304
 Frc consts  --      0.4220                 0.4973                 0.8304
 IR Inten    --      1.9414                12.2731                 8.7087

                     19                     20                     21
                      A                      A                      A
 Frequencies --    739.2680               801.1951               839.9311
 Red. masses --      2.8465                 2.5430                 2.0206
 Frc consts  --      0.9166                 0.9618                 0.8399
 IR Inten    --     12.1696                 9.5018                 8.5340

                     22                     23                     24
                      A                      A                      A
 Frequencies --    851.2349               857.7802               872.5235
 Red. masses --      2.8717                 2.4589                 1.6272
 Frc consts  --      1.2260                 1.0660                 0.7299
 IR Inten    --      8.7331                14.9832                15.4905

                     25                     26                     27
                      A                      A                      A
 Frequencies --    896.4426               899.6322               907.1393
 Red. masses --      2.3335                 2.5280                 2.5423
 Frc consts  --      1.1048                 1.2055                 1.2326
 IR Inten    --      6.5731                19.9138                53.6203

                     28                     29                     30
                      A                      A                      A
 Frequencies --    928.0577               948.5113               983.0763
 Red. masses --      2.0179                 1.4832                 1.8375
 Frc consts  --      1.0240                 0.7862                 1.0463
 IR Inten    --     14.5544                12.0124                15.8876

                     31                     32                     33
                      A                      A                      A
 Frequencies --   1034.4480              1043.0632              1056.0748
 Red. masses --      2.0966                 2.4589                 1.8715
 Frc consts  --      1.3219                 1.5762                 1.2298
 IR Inten    --     16.3243                17.9832                25.9138

                     34                     35                     36
                      A                      A                      A
 Frequencies --   1061.1472              1067.6484              1087.4005
 Red. masses --      2.0419                 1.6102                 2.3169
 Frc consts  --      1.3546                 1.0814                 1.6141
 IR Inten    --    173.0187                30.5583               156.1186

                     37                     38                     39
                      A                      A                      A
 Frequencies --   1107.6584              1148.0992              1151.2185
 Red. masses --      1.5614                 2.3122                 2.4382
 Frc consts  --      1.1287                 1.7957                 1.9039
 IR Inten    --     14.2546               154.6980                62.2812

                     40                     41                     42
                      A                      A                      A
 Frequencies --   1157.3976              1191.0436              1209.7832
 Red. masses --      2.7789                 2.6462                 1.3842
 Frc consts  --      2.1932                 2.2117                 1.1936
 IR Inten    --     34.3745               170.4339                23.9572

                     43                     44                     45
                      A                      A                      A
 Frequencies --   1226.8868              1244.4966              1246.5122
 Red. masses --      1.3944                 1.8219                 1.9747
 Frc consts  --      1.2366                 1.6625                 1.8078
 IR Inten    --      3.5546                18.7522               199.6019

                     46                     47                     48
                      A                      A                      A
 Frequencies --   1290.4827              1299.6431              1317.8877
 Red. masses --      1.2251                 1.1192                 1.1623
 Frc consts  --      1.2021                 1.1138                 1.1894
 IR Inten    --     29.3913                24.3021                14.6739

                     49                     50                     51
                      A                      A                      A
 Frequencies --   1337.4013              1356.7501              1362.5310
 Red. masses --      1.2298                 1.3901                 1.4621
 Frc consts  --      1.2960                 1.5076                 1.5993
 IR Inten    --     14.4127                 2.9867                 3.1734

                     52                     53                     54
                      A                      A                      A
 Frequencies --   1366.0119              1379.8458              1388.3102
 Red. masses --      1.4544                 1.3413                 1.4920
 Frc consts  --      1.5990                 1.5047                 1.6943
 IR Inten    --      1.6726                34.2160                 2.8672

                     55                     56                     57
                      A                      A                      A
 Frequencies --   1391.8980              1398.0195              1405.3521
 Red. masses --      1.7370                 1.3725                 1.4492
 Frc consts  --      1.9827                 1.5804                 1.6864
 IR Inten    --     26.7491                10.5885                 5.4135

                     58                     59                     60
                      A                      A                      A
 Frequencies --   1409.4496              1423.6661              1425.3392
 Red. masses --      1.3650                 1.2836                 1.3557
 Frc consts  --      1.5977                 1.5328                 1.6228
 IR Inten    --      0.3433                 7.6876                 3.6744

                     61                     62                     63
                      A                      A                      A
 Frequencies --   1446.8094              1473.6983              1477.3236
 Red. masses --      1.2993                 1.0878                 1.1007
 Frc consts  --      1.6024                 1.3920                 1.4153
 IR Inten    --     15.3848                 5.4244                 5.0105

                     64                     65                     66
                      A                      A                      A
 Frequencies --   1484.3932              1490.1470              1496.0942
 Red. masses --      1.1154                 1.0877                 1.0839
 Frc consts  --      1.4480                 1.4231                 1.4294
 IR Inten    --     14.5127                 9.9470                 2.8672

                     67                     68                     69
                      A                      A                      A
 Frequencies --   1502.3764              1511.0518              1531.0132
 Red. masses --      1.1080                 1.1030                 1.0897
 Frc consts  --      1.4735                 1.4839                 1.5050
 IR Inten    --     14.2792                 8.3154                 4.1264

                     70                     71                     72
                      A                      A                      A
 Frequencies --   3009.9192              3013.8108              3053.4262
 Red. masses --      1.0708                 1.0712                 1.0689
 Frc consts  --      5.7156                 5.7326                 5.8719
 IR Inten    --     69.2141                90.3031                23.7404

                     73                     74                     75
                      A                      A                      A
 Frequencies --   3064.6512              3067.4372              3070.1494
 Red. masses --      1.0683                 1.0635                 1.0645
 Frc consts  --      5.9114                 5.8958                 5.9118
 IR Inten    --     28.6031                38.4865                15.2629

                     76                     77                     78
                      A                      A                      A
 Frequencies --   3071.9198              3078.5821              3088.4850
 Red. masses --      1.0655                 1.0603                 1.0850
 Frc consts  --      5.9241                 5.9211                 6.0976
 IR Inten    --     36.7339                29.2806               108.0115

                     79                     80                     81
                      A                      A                      A
 Frequencies --   3113.4677              3117.5611              3118.0101
 Red. masses --      1.0824                 1.0973                 1.0962
 Frc consts  --      6.1821                 6.2835                 6.2792
 IR Inten    --     60.3954                20.6654                53.8323

                     82                     83                     84
                      A                      A                      A
 Frequencies --   3118.8367              3124.1309              3129.3843
 Red. masses --      1.0996                 1.1013                 1.0970
 Frc consts  --      6.3017                 6.3328                 6.3295
 IR Inten    --     64.0992                56.9632                48.5964

                     85                     86                     87
                      A                      A                      A
 Frequencies --   3131.0215              3134.7812              3161.7381
 Red. masses --      1.1012                 1.0988                 1.0924
 Frc consts  --      6.3606                 6.3619                 6.4342
 IR Inten    --     56.7337                32.3290                17.4093

 - Thermochemistry -
 -------------------
 Temperature   298.150 Kelvin.  Pressure   1.00000 Atm.
 Atom     1 has atomic number  6 and mass  12.00000

 Molecular mass:   186.12559 amu.
 Principal axes and moments of inertia in atomic units:
                           1         2         3
     Eigenvalues --  1027.755773763.541574059.89927
           X            0.99999  -0.00360   0.00152
           Y            0.00353   0.99904   0.04364
           Z           -0.00167  -0.04364   0.99905
 This molecule is an asymmetric top.
 Rotational symmetry number  1.
 Warning -- assumption of classical behavior for rotation
           may cause significant error
 Rotational temperatures (Kelvin)      0.08427     0.02301     0.02133
 Rotational constants (GHZ):           1.75600     0.47953     0.44453
    1 imaginary frequencies ignored.
 Zero-point vibrational energy     736284.8 (Joules/Mol)
                                  175.97629 (Kcal/Mol)
 Warning -- explicit consideration of  16 degrees of freedom as
           vibrations may cause significant error
 Vibrational temperatures:     55.97   143.89   154.93   258.98   303.63
          (Kelvin)            335.47   405.53   476.20   518.05   577.99
                              616.80   632.20   679.47   750.50   750.96
                              840.07   997.84  1063.64  1152.74  1208.47
                             1224.74  1234.15  1255.37  1289.78  1294.37
                             1305.17  1335.27  1364.70  1414.43  1488.34
                             1500.74  1519.46  1526.75  1536.11  1564.53
                             1593.67  1651.86  1656.35  1665.24  1713.65
                             1740.61  1765.22  1790.55  1793.45  1856.72
                             1869.90  1896.15  1924.22  1952.06  1960.38
                             1965.39  1985.29  1997.47  2002.63  2011.44
                             2021.99  2027.88  2048.34  2050.75  2081.64
                             2120.32  2125.54  2135.71  2143.99  2152.55
                             2161.58  2174.07  2202.79  4330.60  4336.20
                             4393.20  4409.35  4413.36  4417.26  4419.81
                             4429.39  4443.64  4479.59  4485.48  4486.12
                             4487.31  4494.93  4502.49  4504.84  4510.25
                             4549.04

 Zero-point correction=                           0.280436 (Hartree/Particle)
 Thermal correction to Energy=                    0.291453
 Thermal correction to Enthalpy=                  0.292397
 Thermal correction to Gibbs Free Energy=         0.243251
 Sum of electronic and zero-point Energies=           -617.208996
 Sum of electronic and thermal Energies=              -617.197980
 Sum of electronic and thermal Enthalpies=            -617.197035
 Sum of electronic and thermal Free Energies=         -617.246182

                     E (Thermal)             CV                S
                      KCal/Mol        Cal/Mol-Kelvin    Cal/Mol-Kelvin
 Total                  182.889             44.847            103.437
 Electronic               0.000              0.000              0.000
 Translational            0.889              2.981             41.570
 Rotational               0.889              2.981             31.130
 Vibrational            181.112             38.886             30.737
 Vibration     1          0.594              1.981              5.314
 Vibration     2          0.604              1.949              3.454
 Vibration     3          0.606              1.943              3.310
 Vibration     4          0.629              1.867              2.328
 Vibration     5          0.643              1.824              2.035
 Vibration     6          0.654              1.790              1.854
 Vibration     7          0.681              1.707              1.522
 Vibration     8          0.713              1.614              1.255
 Vibration     9          0.735              1.555              1.122
 Vibration    10          0.767              1.466              0.956
 Vibration    11          0.790              1.408              0.863
 Vibration    12          0.799              1.384              0.828
 Vibration    13          0.829              1.312              0.731
 Vibration    14          0.877              1.202              0.606
 Vibration    15          0.877              1.201              0.605
 Vibration    16          0.941              1.066              0.478

 Optimization completed.
    -- Stationary point found.
 Normal termination of Gaussian 16 at Mon Nov  5 05:04:19 2018.
