 Gaussian 16, Revision A.03,
 Gaussian 16:  ES64L-G16RevA.03 25-Dec-2016

 ----------------------------------------------------------------------
 #M062X/6-311++G(2d,2p) opt=ModRedundant freq=noraman SCRF=(Solvent=Wat
 er)
 ----------------------------------------------------------------------

 ----------------------------
 D_1a_4a_L_PHI.inp_extract_16
 ----------------------------
 Symbolic Z-matrix:
 Charge =  0 Multiplicity = 1

 SCF Done:  E(RM062X) =  -617.497983065     A.U. after   12 cycles
 SCF Done:  E(RM062X) =  -617.499860905     A.U. after   10 cycles
 SCF Done:  E(RM062X) =  -617.500110231     A.U. after   10 cycles
 SCF Done:  E(RM062X) =  -617.500201414     A.U. after    9 cycles
 SCF Done:  E(RM062X) =  -617.500207155     A.U. after    9 cycles
 SCF Done:  E(RM062X) =  -617.500207762     A.U. after    8 cycles
 Optimization completed.
    -- Stationary point found.
 Normal termination of Gaussian 16 at Mon Nov  5 02:38:42 2018.

 ----------------------------------------------------------------------
 #N Geom=AllCheck Guess=TCheck SCRF=Check GenChk RM062X/6-311++G(2d,2p)
  Freq
 ----------------------------------------------------------------------

 Structure from the checkpoint file:  "D_1a_4a_L_PHI.inp_extract_16.chk"
 ----------------------------
 D_1a_4a_L_PHI.inp_extract_16
 ----------------------------
 Charge =  0 Multiplicity = 1

                         Standard orientation:
 ---------------------------------------------------------------------
 Center     Atomic      Atomic             Coordinates (Angstroms)
 Number     Number       Type             X           Y           Z
 ---------------------------------------------------------------------
      1          6           0       -3.487779   -0.410309    0.329364
      2          6           0       -0.955482    0.416079   -0.749567
      3          6           0        1.734439    1.376765   -0.033597
      4          6           0       -2.634463    0.593050    1.104295
      5          6           0        3.448020   -0.396967   -0.371319
      6          8           0        2.643200   -1.322842    0.345705
      7          6           0       -2.598623   -1.282649   -0.540431
      8          6           0        0.927894    0.359362    0.773378
      9          6           0        2.599155    0.657209   -1.066654
     10          6           0        1.867933   -0.689925    1.346184
     11          8           0       -1.781238   -0.498580   -1.414790
     12          8           0       -0.024563   -0.350667   -0.007691
     13          6           0       -1.766019    1.371513    0.119098
     14          1           0       -4.196340    0.125870   -0.306430
     15          1           0       -4.062457   -1.045854    1.003641
     16          1           0        2.374579    1.916434    0.668463
     17          1           0       -3.260840    1.274613    1.678323
     18          1           0       -1.997203    0.059415    1.813909
     19          1           0       -1.959236   -1.911766    0.082436
     20          1           0       -3.185469   -1.924305   -1.193563
     21          1           0        1.967735    0.171717   -1.813179
     22          1           0        3.248115    1.361902   -1.586531
     23          1           0        2.523525   -0.210052    2.082346
     24          1           0        1.295057   -1.472316    1.840154
     25          1           0       -2.397243    1.955459   -0.553529
     26          1           0       -1.105143    2.073931    0.626363
     27          1           0       -0.437780    0.958720   -1.543522
     28          1           0        4.146785    0.086687    0.323277
     29          1           0        4.023024   -0.981917   -1.085871
     30          1           0        1.086500    2.119427   -0.498244
     31          1           0        0.426755    0.853967    1.611663
 ---------------------------------------------------------------------

 SCF Done:  E(RM062X) =  -617.500207762     A.U. after    1 cycles

 The electronic state is 1-A.
 Alpha  occ. eigenvalues --  -19.63183 -19.62903 -19.62893 -10.63627 -10.59076
 Alpha  occ. eigenvalues --  -10.58193 -10.57991 -10.57748 -10.53517 -10.53183
 Alpha  occ. eigenvalues --  -10.53144 -10.53137 -10.52930  -1.20109  -1.16547
 Alpha  occ. eigenvalues --   -1.13266  -0.90378  -0.90085  -0.87494  -0.84907
 Alpha  occ. eigenvalues --   -0.75113  -0.73986  -0.72946  -0.71310  -0.66664
 Alpha  occ. eigenvalues --   -0.61786  -0.59915  -0.58947  -0.57269  -0.56173
 Alpha  occ. eigenvalues --   -0.54696  -0.53079  -0.52002  -0.51683  -0.49534
 Alpha  occ. eigenvalues --   -0.47699  -0.46866  -0.46562  -0.46080  -0.45388
 Alpha  occ. eigenvalues --   -0.44245  -0.42966  -0.40563  -0.40359  -0.39302
 Alpha  occ. eigenvalues --   -0.38694  -0.37818  -0.36786  -0.34602  -0.32573
 Alpha  occ. eigenvalues --   -0.32278
 Alpha virt. eigenvalues --   -0.00172   0.00838   0.00883   0.01081   0.02301
 Alpha virt. eigenvalues --    0.02506   0.02670   0.03362   0.03531   0.04665
 Alpha virt. eigenvalues --    0.04676   0.04946   0.05369   0.05931   0.07247

 Mulliken charges:
               1
     1  C   -0.398015
     2  C   -0.188328
     3  C   -0.475861
     4  C   -0.232523
     5  C   -0.209395
     6  O   -0.312140
     7  C   -0.224312
     8  C    0.206212
     9  C   -0.266954
    10  C   -0.505113
    11  O   -0.291838
    12  O   -0.332414
    13  C   -0.226471
    14  H    0.166705
    15  H    0.171787
    16  H    0.228272
    17  H    0.188551
    18  H    0.158877
    19  H    0.165395
    20  H    0.211392
    21  H    0.158796
    22  H    0.186124
    23  H    0.198755
    24  H    0.198052
    25  H    0.213931
    26  H    0.195714
    27  H    0.287787
    28  H    0.143942
    29  H    0.201169
    30  H    0.152740
    31  H    0.229162
 Sum of Mulliken charges =  -0.00000

 Dipole moment (field-independent basis, Debye):
    X=             -0.1889    Y=              3.9279    Z=              2.3513  Tot=              4.5818
 Quadrupole moment (field-independent basis, Debye-Ang):
   XX=            -72.7735   YY=            -81.5870   ZZ=            -80.4756
   XY=              6.6160   XZ=             -3.6845   YZ=             -1.2532

  Exact polarizability: 171.968   3.448 155.524  -1.853  -0.347 155.851
 Approx polarizability: 145.519   2.767 142.876   0.420   0.014 143.650

                      1                      2                      3
                      A                      A                      A
 Frequencies --     53.5311                58.9711               104.7776
 Red. masses --      3.6957                 3.7915                 3.9707
 Frc consts  --      0.0062                 0.0078                 0.0257
 IR Inten    --      1.3693                 0.8421                 1.2435

                      4                      5                      6
                      A                      A                      A
 Frequencies --    139.3478               195.4003               227.6959
 Red. masses --      3.3840                 3.0470                 3.4432
 Frc consts  --      0.0387                 0.0685                 0.1052
 IR Inten    --      1.7153                 1.5014                 6.9043

                      7                      8                      9
                      A                      A                      A
 Frequencies --    269.1967               288.8057               347.4215
 Red. masses --      2.4765                 2.3540                 2.1581
 Frc consts  --      0.1057                 0.1157                 0.1535
 IR Inten    --      1.6904                 4.9324                 4.1331

                     10                     11                     12
                      A                      A                      A
 Frequencies --    399.2437               409.9427               430.9237
 Red. masses --      2.1715                 2.9945                 2.5536
 Frc consts  --      0.2039                 0.2965                 0.2794
 IR Inten    --      3.1371                23.6035                 3.6922

                     13                     14                     15
                      A                      A                      A
 Frequencies --    446.6348               505.7144               523.9427
 Red. masses --      2.5221                 3.7131                 2.4730
 Frc consts  --      0.2964                 0.5595                 0.4000
 IR Inten    --      1.0758                 2.5591                 2.4082

                     16                     17                     18
                      A                      A                      A
 Frequencies --    540.4939               555.7019               672.2593
 Red. masses --      2.1180                 3.0312                 2.4286
 Frc consts  --      0.3645                 0.5515                 0.6467
 IR Inten    --      3.3152                 9.9966                 3.6120

                     19                     20                     21
                      A                      A                      A
 Frequencies --    748.3191               829.3813               840.2301
 Red. masses --      2.4993                 1.7670                 3.6747
 Frc consts  --      0.8246                 0.7161                 1.5285
 IR Inten    --      4.0678                 0.8347                 5.5487

                     22                     23                     24
                      A                      A                      A
 Frequencies --    842.7500               876.1707               882.1685
 Red. masses --      2.6965                 2.0747                 1.7760
 Frc consts  --      1.1284                 0.9384                 0.8143
 IR Inten    --      2.1224                 0.7089                 8.4424

                     25                     26                     27
                      A                      A                      A
 Frequencies --    894.5399               905.7161               917.4069
 Red. masses --      2.3838                 2.3061                 2.5843
 Frc consts  --      1.1239                 1.1146                 1.2815
 IR Inten    --     18.2017                26.2149                41.2094

                     28                     29                     30
                      A                      A                      A
 Frequencies --    930.4623               948.5689              1003.7574
 Red. masses --      1.7133                 1.7027                 2.1423
 Frc consts  --      0.8739                 0.9027                 1.2717
 IR Inten    --     37.9831                 4.0075                56.1038

                     31                     32                     33
                      A                      A                      A
 Frequencies --   1029.6987              1037.5657              1059.2465
 Red. masses --      1.8995                 2.2695                 1.9262
 Frc consts  --      1.1866                 1.4395                 1.2734
 IR Inten    --     34.7301                69.8273                17.3746

                     34                     35                     36
                      A                      A                      A
 Frequencies --   1065.3779              1071.8076              1077.2108
 Red. masses --      1.6102                 2.2882                 2.1027
 Frc consts  --      1.0768                 1.5487                 1.4376
 IR Inten    --     20.7682               221.3704                20.5353

                     37                     38                     39
                      A                      A                      A
 Frequencies --   1107.0131              1153.9766              1154.5470
 Red. masses --      1.7030                 2.2580                 2.9928
 Frc consts  --      1.2296                 1.7716                 2.3504
 IR Inten    --     56.6607                87.1567                73.5918

                     40                     41                     42
                      A                      A                      A
 Frequencies --   1173.0658              1187.9146              1213.2836
 Red. masses --      2.4709                 2.7244                 1.4886
 Frc consts  --      2.0033                 2.2651                 1.2911
 IR Inten    --     81.1310                92.6937                47.3606

                     43                     44                     45
                      A                      A                      A
 Frequencies --   1227.8278              1242.0290              1249.9646
 Red. masses --      1.4212                 1.8295                 1.8692
 Frc consts  --      1.2624                 1.6628                 1.7207
 IR Inten    --     63.0912                55.3330                91.7493

                     46                     47                     48
                      A                      A                      A
 Frequencies --   1284.9904              1301.6833              1319.1973
 Red. masses --      1.2174                 1.1272                 1.1543
 Frc consts  --      1.1844                 1.1253                 1.1835
 IR Inten    --     27.3767                11.3213                 6.4458

                     49                     50                     51
                      A                      A                      A
 Frequencies --   1339.1603              1356.1647              1365.8319
 Red. masses --      1.2180                 1.3161                 1.3521
 Frc consts  --      1.2870                 1.4261                 1.4861
 IR Inten    --     13.5178                24.3363                 4.6708

                     52                     53                     54
                      A                      A                      A
 Frequencies --   1368.5428              1378.6368              1385.7251
 Red. masses --      1.5043                 1.4729                 1.4861
 Frc consts  --      1.6600                 1.6494                 1.6814
 IR Inten    --     14.4065                14.1449                 5.9476

                     55                     56                     57
                      A                      A                      A
 Frequencies --   1390.7564              1398.8486              1405.8054
 Red. masses --      1.5583                 1.4265                 1.3570
 Frc consts  --      1.7758                 1.6447                 1.5801
 IR Inten    --     12.1974                14.2858                 1.2239

                     58                     59                     60
                      A                      A                      A
 Frequencies --   1408.1488              1416.8467              1429.7667
 Red. masses --      1.4186                 1.3536                 1.3559
 Frc consts  --      1.6574                 1.6010                 1.6330
 IR Inten    --      7.3608                 3.0805                 8.9564

                     61                     62                     63
                      A                      A                      A
 Frequencies --   1441.7706              1477.4877              1479.3090
 Red. masses --      1.3852                 1.0947                 1.0979
 Frc consts  --      1.6965                 1.4080                 1.4156
 IR Inten    --     11.9385                 7.2363                 3.5016

                     64                     65                     66
                      A                      A                      A
 Frequencies --   1487.1098              1489.9343              1497.7674
 Red. masses --      1.0846                 1.0944                 1.1056
 Frc consts  --      1.4132                 1.4314                 1.4613
 IR Inten    --      6.5623                11.3754                16.8831

                     67                     68                     69
                      A                      A                      A
 Frequencies --   1500.8868              1511.4356              1512.7914
 Red. masses --      1.0986                 1.0944                 1.0978
 Frc consts  --      1.4581                 1.4729                 1.4803
 IR Inten    --     17.8302                 3.0471                12.1447

                     70                     71                     72
                      A                      A                      A
 Frequencies --   3013.6363              3029.5528              3046.6544
 Red. masses --      1.0708                 1.0693                 1.0820
 Frc consts  --      5.7298                 5.7824                 5.9172
 IR Inten    --     78.9169                43.4295                84.3870

                     73                     74                     75
                      A                      A                      A
 Frequencies --   3060.6236              3066.0008              3070.4598
 Red. masses --      1.0681                 1.0635                 1.0717
 Frc consts  --      5.8948                 5.8901                 5.9527
 IR Inten    --     23.9713                41.4270                34.9879

                     76                     77                     78
                      A                      A                      A
 Frequencies --   3072.3680              3072.9514              3076.8281
 Red. masses --      1.0652                 1.0677                 1.0633
 Frc consts  --      5.9243                 5.9404                 5.9307
 IR Inten    --     59.3085                16.7994                32.5800

                     79                     80                     81
                      A                      A                      A
 Frequencies --   3084.3238              3115.1978              3119.4775
 Red. masses --      1.0728                 1.0973                 1.0990
 Frc consts  --      6.0128                 6.2742                 6.3013
 IR Inten    --     59.4024                42.7558                20.7848

                     82                     83                     84
                      A                      A                      A
 Frequencies --   3120.0547              3123.4850              3125.9541
 Red. masses --      1.0977                 1.1030                 1.1015
 Frc consts  --      6.2959                 6.3402                 6.3414
 IR Inten    --     83.0431                68.6548                26.3529

                     85                     86                     87
                      A                      A                      A
 Frequencies --   3132.0127              3134.1720              3138.9108
 Red. masses --      1.0945                 1.0957                 1.1016
 Frc consts  --      6.3258                 6.3412                 6.3951
 IR Inten    --     49.2456                28.4073                45.0313

 - Thermochemistry -
 -------------------
 Temperature   298.150 Kelvin.  Pressure   1.00000 Atm.
 Atom     1 has atomic number  6 and mass  12.00000

 Molecular mass:   186.12559 amu.
 Principal axes and moments of inertia in atomic units:
                           1         2         3
     Eigenvalues --  1032.779913933.672754006.61706
           X            0.99989   0.00905  -0.01150
           Y           -0.00954   0.99903  -0.04294
           Z            0.01110   0.04305   0.99901
 This molecule is an asymmetric top.
 Rotational symmetry number  1.
 Warning -- assumption of classical behavior for rotation
           may cause significant error
 Rotational temperatures (Kelvin)      0.08386     0.02202     0.02162
 Rotational constants (GHZ):           1.74746     0.45879     0.45044
 Zero-point vibrational energy     738043.7 (Joules/Mol)
                                  176.39667 (Kcal/Mol)
 Warning -- explicit consideration of  17 degrees of freedom as
           vibrations may cause significant error
 Vibrational temperatures:     77.02    84.85   150.75   200.49   281.14
          (Kelvin)            327.60   387.31   415.53   499.86   574.42
                              589.82   620.00   642.61   727.61   753.84
                              777.65   799.53   967.23  1076.66  1193.29
                             1208.90  1212.53  1260.61  1269.24  1287.04
                             1303.12  1319.94  1338.73  1364.78  1444.18
                             1481.51  1492.83  1524.02  1532.84  1542.09
                             1549.87  1592.74  1660.31  1661.14  1687.78
                             1709.14  1745.64  1766.57  1787.00  1798.42
                             1848.81  1872.83  1898.03  1926.75  1951.22
                             1965.13  1969.03  1983.55  1993.75  2000.99
                             2012.63  2022.64  2026.01  2038.53  2057.12
                             2074.39  2125.78  2128.40  2139.62  2143.68
                             2154.95  2159.44  2174.62  2176.57  4335.95
                             4358.85  4383.46  4403.55  4411.29  4417.71
                             4420.45  4421.29  4426.87  4437.65  4482.07
                             4488.23  4489.06  4494.00  4497.55  4506.27
                             4509.37  4516.19

 Zero-point correction=                           0.281106 (Hartree/Particle)
 Thermal correction to Energy=                    0.292621
 Thermal correction to Enthalpy=                  0.293565
 Thermal correction to Gibbs Free Energy=         0.243319
 Sum of electronic and zero-point Energies=           -617.219102
 Sum of electronic and thermal Energies=              -617.207587
 Sum of electronic and thermal Enthalpies=            -617.206643
 Sum of electronic and thermal Free Energies=         -617.256889

                     E (Thermal)             CV                S
                      KCal/Mol        Cal/Mol-Kelvin    Cal/Mol-Kelvin
 Total                  183.622             46.351            105.753
 Electronic               0.000              0.000              0.000
 Translational            0.889              2.981             41.570
 Rotational               0.889              2.981             31.166
 Vibrational            181.845             40.390             33.017
 Vibration     1          0.596              1.976              4.682
 Vibration     2          0.596              1.974              4.491
 Vibration     3          0.605              1.945              3.363
 Vibration     4          0.615              1.914              2.813
 Vibration     5          0.636              1.846              2.176
 Vibration     6          0.651              1.799              1.897
 Vibration     7          0.674              1.730              1.601
 Vibration     8          0.685              1.695              1.481
 Vibration     9          0.725              1.581              1.178
 Vibration    10          0.765              1.472              0.965
 Vibration    11          0.774              1.449              0.927
 Vibration    12          0.792              1.403              0.856
 Vibration    13          0.806              1.368              0.806
 Vibration    14          0.861              1.237              0.644
 Vibration    15          0.879              1.197              0.601
 Vibration    16          0.896              1.161              0.564
 Vibration    17          0.911              1.127              0.532

 Optimization completed.
    -- Stationary point found.
 Normal termination of Gaussian 16 at Mon Nov  5 03:33:38 2018.
