 Gaussian 16, Revision A.03,
 Gaussian 16:  ES64L-G16RevA.03 25-Dec-2016

 ----------------------------------------------------------------------
 #M062X/6-311++G(2d,2p) opt=ModRedundant freq=noraman SCRF=(Solvent=Wat
 er)
 ----------------------------------------------------------------------

 ---------------------------
 D_1a_4a_L_PHI.inp_extract_2
 ---------------------------
 Symbolic Z-matrix:
 Charge =  0 Multiplicity = 1

 SCF Done:  E(RM062X) =  -617.487610889     A.U. after   12 cycles
 SCF Done:  E(RM062X) =  -617.488278017     A.U. after   11 cycles
 SCF Done:  E(RM062X) =  -617.489200065     A.U. after   11 cycles
 SCF Done:  E(RM062X) =  -617.489589346     A.U. after   10 cycles
 SCF Done:  E(RM062X) =  -617.489713328     A.U. after   10 cycles
 SCF Done:  E(RM062X) =  -617.489731866     A.U. after    9 cycles
 SCF Done:  E(RM062X) =  -617.489738346     A.U. after    9 cycles
 SCF Done:  E(RM062X) =  -617.489741616     A.U. after    8 cycles
 SCF Done:  E(RM062X) =  -617.489742453     A.U. after    8 cycles
 Optimization completed.
    -- Stationary point found.
 Normal termination of Gaussian 16 at Mon Nov  5 04:01:01 2018.

 ----------------------------------------------------------------------
 #N Geom=AllCheck Guess=TCheck SCRF=Check GenChk RM062X/6-311++G(2d,2p)
  Freq
 ----------------------------------------------------------------------

 Structure from the checkpoint file:  "D_1a_4a_L_PHI.inp_extract_2.chk"
 ---------------------------
 D_1a_4a_L_PHI.inp_extract_2
 ---------------------------
 Charge =  0 Multiplicity = 1

                         Standard orientation:
 ---------------------------------------------------------------------
 Center     Atomic      Atomic             Coordinates (Angstroms)
 Number     Number       Type             X           Y           Z
 ---------------------------------------------------------------------
      1          6           0        3.233944   -0.381654   -0.755518
      2          6           0        1.109389    0.199595    1.146416
      3          6           0       -1.793767    1.178914   -0.950349
      4          6           0        2.740600    1.052543   -0.593910
      5          6           0       -3.468421   -0.332479    0.106861
      6          8           0       -2.424483   -1.205536    0.515821
      7          6           0        2.108281   -1.357557   -0.464856
      8          6           0       -0.714697    0.174868   -0.552877
      9          6           0       -2.979975    1.103777    0.009612
     10          6           0       -1.345757   -1.208176   -0.401329
     11          8           0        1.448409   -1.112900    0.781994
     12          8           0       -0.150846    0.653028    0.660817
     13          6           0        2.202740    1.211806    0.823351
     14          1           0        4.057189   -0.558940   -0.059792
     15          1           0        3.605642   -0.571067   -1.762520
     16          1           0       -2.127621    0.934900   -1.961707
     17          1           0        3.549242    1.760647   -0.770480
     18          1           0        1.959991    1.271046   -1.326584
     19          1           0        1.380435   -1.346763   -1.279021
     20          1           0        2.487080   -2.374103   -0.380922
     21          1           0       -2.680614    1.446962    1.000530
     22          1           0       -3.793557    1.743367   -0.333479
     23          1           0       -1.697466   -1.533609   -1.389327
     24          1           0       -0.622627   -1.926637   -0.028039
     25          1           0        3.019624    1.053943    1.531696
     26          1           0        1.798765    2.206883    1.000915
     27          1           0        0.969311    0.152712    2.225671
     28          1           0       -3.853977   -0.664943   -0.865673
     29          1           0       -4.261430   -0.436541    0.844582
     30          1           0       -1.363913    2.179649   -0.975569
     31          1           0        0.035274    0.135934   -1.343752
 ---------------------------------------------------------------------

 SCF Done:  E(RM062X) =  -617.489742453     A.U. after    1 cycles

 The electronic state is 1-A.
 Alpha  occ. eigenvalues --  -19.63584 -19.62712 -19.62336 -10.63828 -10.58848
 Alpha  occ. eigenvalues --  -10.58418 -10.57790 -10.57587 -10.53341 -10.53251
 Alpha  occ. eigenvalues --  -10.53153 -10.53030 -10.52794  -1.19400  -1.16240
 Alpha  occ. eigenvalues --   -1.13133  -0.90962  -0.90285  -0.87263  -0.84510
 Alpha  occ. eigenvalues --   -0.74901  -0.73939  -0.73685  -0.71208  -0.66017
 Alpha  occ. eigenvalues --   -0.62886  -0.59609  -0.57911  -0.57397  -0.55148
 Alpha  occ. eigenvalues --   -0.54345  -0.53606  -0.52727  -0.50996  -0.49529
 Alpha  occ. eigenvalues --   -0.48556  -0.47228  -0.46576  -0.45573  -0.45116
 Alpha  occ. eigenvalues --   -0.43522  -0.42309  -0.40872  -0.40208  -0.39306
 Alpha  occ. eigenvalues --   -0.38893  -0.38007  -0.36318  -0.34368  -0.33147
 Alpha  occ. eigenvalues --   -0.31150
 Alpha virt. eigenvalues --   -0.00235   0.00740   0.00863   0.01155   0.02257
 Alpha virt. eigenvalues --    0.02568   0.02671   0.03199   0.03526   0.04651
 Alpha virt. eigenvalues --    0.04715   0.04872   0.05537   0.06022   0.07179

 Mulliken charges:
               1
     1  C   -0.447318
     2  C   -0.226245
     3  C   -0.659258
     4  C   -0.257657
     5  C   -0.156389
     6  O   -0.294822
     7  C   -0.152382
     8  C    0.077645
     9  C   -0.251378
    10  C   -0.433486
    11  O   -0.279136
    12  O   -0.208347
    13  C   -0.190028
    14  H    0.174033
    15  H    0.177696
    16  H    0.220444
    17  H    0.205754
    18  H    0.169254
    19  H    0.168315
    20  H    0.224390
    21  H    0.167037
    22  H    0.183439
    23  H    0.197143
    24  H    0.252287
    25  H    0.190838
    26  H    0.183975
    27  H    0.239459
    28  H    0.133871
    29  H    0.203989
    30  H    0.166360
    31  H    0.220518
 Sum of Mulliken charges =  -0.00000

 Dipole moment (field-independent basis, Debye):
    X=              1.8808    Y=              1.5926    Z=             -3.6924  Tot=              4.4393
 Quadrupole moment (field-independent basis, Debye-Ang):
   XX=            -71.3955   YY=            -82.8728   ZZ=            -79.5528
   XY=             -3.1019   XZ=              2.4568   YZ=              3.9333

  Exact polarizability: 172.091  -2.973 157.183  -1.052   3.595 154.275
 Approx polarizability: 145.578  -3.018 141.220   0.194   1.963 145.003

 ******    1 imaginary frequencies (negative Signs) ******

                      1                      2                      3
                      A                      A                      A
 Frequencies --    -56.0330                48.7442                99.8260
 Red. masses --      4.1853                 4.0181                 3.2011
 Frc consts  --      0.0077                 0.0056                 0.0188
 IR Inten    --      4.8075                 1.3071                 1.4246

                      4                      5                      6
                      A                      A                      A
 Frequencies --    115.7069               177.8499               218.9420
 Red. masses --      3.4726                 4.2093                 3.0731
 Frc consts  --      0.0274                 0.0784                 0.0868
 IR Inten    --      1.8320                 2.1572                 3.5354

                      7                      8                      9
                      A                      A                      A
 Frequencies --    239.2421               290.9727               331.0569
 Red. masses --      3.0681                 2.4532                 2.0188
 Frc consts  --      0.1035                 0.1224                 0.1304
 IR Inten    --     14.1305                 8.3998                 3.7920

                     10                     11                     12
                      A                      A                      A
 Frequencies --    357.4859               405.9279               429.4328
 Red. masses --      2.2541                 2.0486                 2.5563
 Frc consts  --      0.1697                 0.1989                 0.2778
 IR Inten    --      0.3977                 3.6692                 2.0792

                     13                     14                     15
                      A                      A                      A
 Frequencies --    439.6046               472.3388               519.1552
 Red. masses --      2.7318                 3.8829                 2.7776
 Frc consts  --      0.3110                 0.5104                 0.4411
 IR Inten    --      6.0382                 2.4766                 1.9412

                     16                     17                     18
                      A                      A                      A
 Frequencies --    525.4299               584.4128               692.6016
 Red. masses --      2.3070                 2.4313                 2.8781
 Frc consts  --      0.3753                 0.4893                 0.8134
 IR Inten    --      1.7456                15.3169                13.5366

                     19                     20                     21
                      A                      A                      A
 Frequencies --    743.3892               797.9110               837.6420
 Red. masses --      2.9180                 2.6161                 1.9517
 Frc consts  --      0.9501                 0.9813                 0.8068
 IR Inten    --     11.3245                 9.4741                10.5270

                     22                     23                     24
                      A                      A                      A
 Frequencies --    853.0823               857.5351               875.9996
 Red. masses --      2.9836                 2.4312                 1.6427
 Frc consts  --      1.2793                 1.0533                 0.7427
 IR Inten    --      7.1888                14.2705                15.6147

                     25                     26                     27
                      A                      A                      A
 Frequencies --    894.7976               898.8952               908.9647
 Red. masses --      2.4484                 2.3485                 2.5851
 Frc consts  --      1.1550                 1.1180                 1.2584
 IR Inten    --     10.5909                23.7982                50.2549

                     28                     29                     30
                      A                      A                      A
 Frequencies --    928.5974               947.6370               984.5736
 Red. masses --      2.0204                 1.4847                 1.8701
 Frc consts  --      1.0264                 0.7855                 1.0681
 IR Inten    --     13.7686                 9.9431                 9.0391

                     31                     32                     33
                      A                      A                      A
 Frequencies --   1033.4235              1044.0483              1057.2933
 Red. masses --      2.0636                 2.4477                 1.8957
 Frc consts  --      1.2985                 1.5720                 1.2486
 IR Inten    --     17.7705                 9.2222                36.3283

                     34                     35                     36
                      A                      A                      A
 Frequencies --   1062.3481              1070.5551              1087.7603
 Red. masses --      2.2164                 1.5498                 2.2919
 Frc consts  --      1.4738                 1.0465                 1.5978
 IR Inten    --    151.3297                43.7711               171.6930

                     37                     38                     39
                      A                      A                      A
 Frequencies --   1110.8718              1147.8897              1150.9514
 Red. masses --      1.5788                 2.4143                 2.3932
 Frc consts  --      1.1479                 1.8743                 1.8678
 IR Inten    --     10.0252               169.5799                32.9124

                     40                     41                     42
                      A                      A                      A
 Frequencies --   1159.2836              1190.1263              1212.1303
 Red. masses --      2.7271                 2.6909                 1.4194
 Frc consts  --      2.1594                 2.2456                 1.2287
 IR Inten    --     43.7837               173.6493                33.7292

                     43                     44                     45
                      A                      A                      A
 Frequencies --   1228.9746              1245.7556              1248.9320
 Red. masses --      1.4045                 1.8033                 1.9261
 Frc consts  --      1.2498                 1.6489                 1.7701
 IR Inten    --      0.3065                43.3628               158.7089

                     46                     47                     48
                      A                      A                      A
 Frequencies --   1294.2167              1301.0964              1319.5980
 Red. masses --      1.2204                 1.1146                 1.1611
 Frc consts  --      1.2043                 1.1117                 1.1913
 IR Inten    --     31.4288                21.2694                14.9213

                     49                     50                     51
                      A                      A                      A
 Frequencies --   1339.5642              1357.6938              1364.0808
 Red. masses --      1.2186                 1.3828                 1.5116
 Frc consts  --      1.2884                 1.5018                 1.6572
 IR Inten    --     12.6343                 3.0855                 3.5415

                     52                     53                     54
                      A                      A                      A
 Frequencies --   1367.7674              1383.2587              1388.6719
 Red. masses --      1.4048                 1.3336                 1.5089
 Frc consts  --      1.5484                 1.5034                 1.7144
 IR Inten    --      1.4799                34.1627                 6.9571

                     55                     56                     57
                      A                      A                      A
 Frequencies --   1392.3408              1399.4200              1406.9913
 Red. masses --      1.6642                 1.3971                 1.3831
 Frc consts  --      1.9008                 1.6120                 1.6132
 IR Inten    --     18.8560                12.2011                 4.3304

                     58                     59                     60
                      A                      A                      A
 Frequencies --   1409.3592              1425.6882              1428.5525
 Red. masses --      1.4012                 1.2948                 1.3446
 Frc consts  --      1.6398                 1.5506                 1.6167
 IR Inten    --      6.1503                12.4259                 3.5818

                     61                     62                     63
                      A                      A                      A
 Frequencies --   1445.1459              1476.3824              1477.3484
 Red. masses --      1.2775                 1.0875                 1.0993
 Frc consts  --      1.5720                 1.3966                 1.4136
 IR Inten    --     10.8985                 5.6215                 4.3557

                     64                     65                     66
                      A                      A                      A
 Frequencies --   1486.3233              1488.0610              1493.8678
 Red. masses --      1.1180                 1.0879                 1.0856
 Frc consts  --      1.4552                 1.4193                 1.4274
 IR Inten    --     15.0226                 7.8913                 2.4106

                     67                     68                     69
                      A                      A                      A
 Frequencies --   1501.4386              1511.4450              1530.7412
 Red. masses --      1.1076                 1.1024                 1.0892
 Frc consts  --      1.4711                 1.4837                 1.5036
 IR Inten    --     16.3304                 8.0647                 4.3005

                     70                     71                     72
                      A                      A                      A
 Frequencies --   3010.8531              3013.2999              3060.4088
 Red. masses --      1.0708                 1.0715                 1.0719
 Frc consts  --      5.7191                 5.7322                 5.9150
 IR Inten    --     63.3940                93.6043                15.5553

                     73                     74                     75
                      A                      A                      A
 Frequencies --   3065.3627              3067.0572              3069.8933
 Red. masses --      1.0678                 1.0637                 1.0642
 Frc consts  --      5.9116                 5.8953                 5.9092
 IR Inten    --     30.8738                38.4453                27.9031

                     76                     77                     78
                      A                      A                      A
 Frequencies --   3071.8501              3080.2635              3098.1535
 Red. masses --      1.0622                 1.0603                 1.0800
 Frc consts  --      5.9055                 5.9274                 6.1079
 IR Inten    --     35.1721                29.0872               132.6447

                     79                     80                     81
                      A                      A                      A
 Frequencies --   3102.0604              3116.7460              3118.3684
 Red. masses --      1.0864                 1.0968                 1.1000
 Frc consts  --      6.1593                 6.2774                 6.3022
 IR Inten    --     26.4250                31.3773                33.0477

                     82                     83                     84
                      A                      A                      A
 Frequencies --   3119.9623              3125.0318              3130.1731
 Red. masses --      1.0996                 1.1000                 1.0982
 Frc consts  --      6.3065                 6.3294                 6.3399
 IR Inten    --     68.5989                57.9452                47.9054

                     85                     86                     87
                      A                      A                      A
 Frequencies --   3131.1447              3132.3216              3166.8607
 Red. masses --      1.1006                 1.0993                 1.0920
 Frc consts  --      6.3574                 6.3546                 6.4523
 IR Inten    --     39.4057                47.3076                15.7545

 - Thermochemistry -
 -------------------
 Temperature   298.150 Kelvin.  Pressure   1.00000 Atm.
 Atom     1 has atomic number  6 and mass  12.00000

 Molecular mass:   186.12559 amu.
 Principal axes and moments of inertia in atomic units:
                           1         2         3
     Eigenvalues --  1049.874053648.020723971.48020
           X            0.99999  -0.00439  -0.00015
           Y            0.00439   0.99913   0.04153
           Z           -0.00004  -0.04153   0.99914
 This molecule is an asymmetric top.
 Rotational symmetry number  1.
 Warning -- assumption of classical behavior for rotation
           may cause significant error
 Rotational temperatures (Kelvin)      0.08250     0.02374     0.02181
 Rotational constants (GHZ):           1.71901     0.49472     0.45443
    1 imaginary frequencies ignored.
 Zero-point vibrational energy     736881.5 (Joules/Mol)
                                  176.11890 (Kcal/Mol)
 Warning -- explicit consideration of  16 degrees of freedom as
           vibrations may cause significant error
 Vibrational temperatures:     70.13   143.63   166.48   255.89   315.01
          (Kelvin)            344.22   418.64   476.32   514.34   584.04
                              617.86   632.49   679.59   746.95   755.98
                              840.84   996.50  1069.57  1148.02  1205.18
                             1227.40  1233.80  1260.37  1287.41  1293.31
                             1307.80  1336.04  1363.44  1416.58  1486.87
                             1502.15  1521.21  1528.48  1540.29  1565.04
                             1598.30  1651.56  1655.96  1667.95  1712.33
                             1743.99  1768.22  1792.36  1796.93  1862.09
                             1871.99  1898.61  1927.33  1953.42  1962.61
                             1967.91  1990.20  1997.99  2003.27  2013.45
                             2024.35  2027.75  2051.25  2055.37  2079.24
                             2124.18  2125.57  2138.49  2140.99  2149.34
                             2160.24  2174.63  2202.40  4331.95  4335.47
                             4403.25  4410.37  4412.81  4416.89  4419.71
                             4431.81  4457.55  4463.17  4484.30  4486.64
                             4488.93  4496.22  4503.62  4505.02  4506.71
                             4556.41

 Zero-point correction=                           0.280663 (Hartree/Particle)
 Thermal correction to Energy=                    0.291609
 Thermal correction to Enthalpy=                  0.292553
 Thermal correction to Gibbs Free Energy=         0.243776
 Sum of electronic and zero-point Energies=           -617.209079
 Sum of electronic and thermal Energies=              -617.198133
 Sum of electronic and thermal Enthalpies=            -617.197189
 Sum of electronic and thermal Free Energies=         -617.245966

                     E (Thermal)             CV                S
                      KCal/Mol        Cal/Mol-Kelvin    Cal/Mol-Kelvin
 Total                  182.987             44.765            102.659
 Electronic               0.000              0.000              0.000
 Translational            0.889              2.981             41.570
 Rotational               0.889              2.981             31.098
 Vibrational            181.210             38.803             29.992
 Vibration     1          0.595              1.978              4.868
 Vibration     2          0.604              1.949              3.458
 Vibration     3          0.608              1.936              3.171
 Vibration     4          0.628              1.870              2.351
 Vibration     5          0.647              1.812              1.968
 Vibration     6          0.657              1.780              1.809
 Vibration     7          0.687              1.691              1.468
 Vibration     8          0.713              1.613              1.255
 Vibration     9          0.733              1.560              1.133
 Vibration    10          0.771              1.457              0.941
 Vibration    11          0.791              1.406              0.861
 Vibration    12          0.800              1.384              0.828
 Vibration    13          0.829              1.311              0.731
 Vibration    14          0.874              1.208              0.612
 Vibration    15          0.880              1.194              0.597
 Vibration    16          0.941              1.065              0.477

                           ! Non-Optimized Parameters !
 Normal termination of Gaussian 16 at Mon Nov  5 04:57:50 2018.
