 Gaussian 16, Revision A.03,
 Gaussian 16:  ES64L-G16RevA.03 25-Dec-2016

 ----------------------------------------------------------------------
 #M062X/6-311++G(2d,2p) opt=ModRedundant freq=noraman SCRF=(Solvent=Wat
 er)
 ----------------------------------------------------------------------

 ----------------------------
 D_1a_4a_L_PHI.inp_extract_22
 ----------------------------
 Symbolic Z-matrix:
 Charge =  0 Multiplicity = 1

 SCF Done:  E(RM062X) =  -617.489822598     A.U. after   12 cycles
 SCF Done:  E(RM062X) =  -617.489991719     A.U. after   11 cycles
 SCF Done:  E(RM062X) =  -617.491283079     A.U. after   11 cycles
 SCF Done:  E(RM062X) =  -617.491629569     A.U. after   10 cycles
 SCF Done:  E(RM062X) =  -617.491699081     A.U. after    9 cycles
 SCF Done:  E(RM062X) =  -617.491703458     A.U. after    8 cycles
 SCF Done:  E(RM062X) =  -617.491704098     A.U. after    8 cycles
 SCF Done:  E(RM062X) =  -617.491704292     A.U. after    7 cycles
 SCF Done:  E(RM062X) =  -617.491704367     A.U. after    7 cycles
 Optimization completed.
    -- Stationary point found.
 Normal termination of Gaussian 16 at Mon Nov  5 03:42:23 2018.

 ----------------------------------------------------------------------
 #N Geom=AllCheck Guess=TCheck SCRF=Check GenChk RM062X/6-311++G(2d,2p)
  Freq
 ----------------------------------------------------------------------

 Structure from the checkpoint file:  "D_1a_4a_L_PHI.inp_extract_22.chk"
 ----------------------------
 D_1a_4a_L_PHI.inp_extract_22
 ----------------------------
 Charge =  0 Multiplicity = 1

                         Standard orientation:
 ---------------------------------------------------------------------
 Center     Atomic      Atomic             Coordinates (Angstroms)
 Number     Number       Type             X           Y           Z
 ---------------------------------------------------------------------
      1          6           0        3.288116   -0.336051   -0.748947
      2          6           0        1.167569    0.286253    1.167080
      3          6           0       -1.701690    1.318785   -0.537190
      4          6           0        2.555366    0.989031   -0.932963
      5          6           0       -3.528949   -0.315203   -0.088747
      6          8           0       -2.569310   -1.347686    0.095086
      7          6           0        2.336002   -1.355695   -0.154786
      8          6           0       -0.717804    0.157118   -0.416713
      9          6           0       -2.955295    1.040435    0.290904
     10          6           0       -1.427685   -1.156583   -0.719050
     11          8           0        1.872254   -0.935177    1.125905
     12          8           0       -0.205824    0.106148    0.913720
     13          6           0        1.863539    1.402898    0.371977
     14          1           0        4.133077   -0.210278   -0.068129
     15          1           0        3.676726   -0.702315   -1.699114
     16          1           0       -1.975839    1.429368   -1.589561
     17          1           0        3.250252    1.775486   -1.226259
     18          1           0        1.841316    0.891287   -1.751075
     19          1           0        1.489950   -1.529184   -0.827693
     20          1           0        2.826561   -2.311814    0.013477
     21          1           0       -2.706136    1.035345    1.352986
     22          1           0       -3.705369    1.814408    0.127830
     23          1           0       -1.717995   -1.169976   -1.777077
     24          1           0       -0.763375   -1.996797   -0.524045
     25          1           0        2.630235    1.797494    1.040703
     26          1           0        1.148862    2.208495    0.205001
     27          1           0        1.185407    0.557525    2.220808
     28          1           0       -3.852954   -0.307234   -1.137409
     29          1           0       -4.382397   -0.577058    0.533083
     30          1           0       -1.217176    2.243104   -0.223590
     31          1           0        0.086885    0.279936   -1.137000
 ---------------------------------------------------------------------

 SCF Done:  E(RM062X) =  -617.491704367     A.U. after    1 cycles

 The electronic state is 1-A.
 Alpha  occ. eigenvalues --  -19.63024 -19.62872 -19.62792 -10.63876 -10.58897
 Alpha  occ. eigenvalues --  -10.58152 -10.58110 -10.57906 -10.53713 -10.53499
 Alpha  occ. eigenvalues --  -10.53259 -10.53091 -10.52913  -1.19524  -1.16471
 Alpha  occ. eigenvalues --   -1.13317  -0.90563  -0.90405  -0.87392  -0.84744
 Alpha  occ. eigenvalues --   -0.74902  -0.74170  -0.73797  -0.71240  -0.66385
 Alpha  occ. eigenvalues --   -0.63027  -0.59588  -0.58225  -0.57234  -0.55375
 Alpha  occ. eigenvalues --   -0.54872  -0.53514  -0.52456  -0.50687  -0.50217
 Alpha  occ. eigenvalues --   -0.49583  -0.46831  -0.46294  -0.45615  -0.45160
 Alpha  occ. eigenvalues --   -0.43877  -0.42313  -0.41236  -0.40314  -0.38978
 Alpha  occ. eigenvalues --   -0.38588  -0.37786  -0.36635  -0.34734  -0.33452
 Alpha  occ. eigenvalues --   -0.31727
 Alpha virt. eigenvalues --   -0.00222   0.00686   0.00863   0.01193   0.02278
 Alpha virt. eigenvalues --    0.02581   0.02711   0.03211   0.03658   0.04603
 Alpha virt. eigenvalues --    0.04766   0.04870   0.05559   0.06073   0.07571

 Mulliken charges:
               1
     1  C   -0.337525
     2  C   -0.145470
     3  C   -0.475837
     4  C   -0.311947
     5  C   -0.207935
     6  O   -0.313034
     7  C   -0.202405
     8  C   -0.002713
     9  C   -0.240630
    10  C   -0.349590
    11  O   -0.298548
    12  O   -0.269590
    13  C   -0.251710
    14  H    0.172656
    15  H    0.166880
    16  H    0.218969
    17  H    0.192666
    18  H    0.183572
    19  H    0.117627
    20  H    0.227246
    21  H    0.173553
    22  H    0.185844
    23  H    0.194376
    24  H    0.205371
    25  H    0.221611
    26  H    0.185036
    27  H    0.247594
    28  H    0.136106
    29  H    0.200182
    30  H    0.149711
    31  H    0.227932
 Sum of Mulliken charges =  -0.00000

 Dipole moment (field-independent basis, Debye):
    X=              1.3644    Y=              3.2921    Z=             -4.2034  Tot=              5.5107
 Quadrupole moment (field-independent basis, Debye-Ang):
   XX=            -74.0920   YY=            -81.5159   ZZ=            -81.2942
   XY=             -3.8433   XZ=             -0.1176   YZ=              4.7900

  Exact polarizability: 173.547  -3.159 157.007  -1.545   2.456 153.013
 Approx polarizability: 147.060  -2.411 140.738   0.045   0.823 144.031

 ******    1 imaginary frequencies (negative Signs) ******

                      1                      2                      3
                      A                      A                      A
 Frequencies --    -22.7023                38.4983                93.6316
 Red. masses --      4.5624                 3.8909                 3.3183
 Frc consts  --      0.0014                 0.0034                 0.0171
 IR Inten    --      2.9382                 0.1138                 0.6026

                      4                      5                      6
                      A                      A                      A
 Frequencies --    119.5970               191.8275               203.0406
 Red. masses --      3.4120                 3.6906                 3.0275
 Frc consts  --      0.0288                 0.0800                 0.0735
 IR Inten    --      1.5293                 5.6271                 4.2586

                      7                      8                      9
                      A                      A                      A
 Frequencies --    230.1047               296.9951               336.9877
 Red. masses --      2.2180                 2.4941                 1.7813
 Frc consts  --      0.0692                 0.1296                 0.1192
 IR Inten    --      4.1723                 1.6661                 0.7558

                     10                     11                     12
                      A                      A                      A
 Frequencies --    365.8734               422.6976               424.3937
 Red. masses --      2.2376                 2.3778                 2.3865
 Frc consts  --      0.1765                 0.2503                 0.2532
 IR Inten    --      3.4587                 5.3525                 3.0734

                     13                     14                     15
                      A                      A                      A
 Frequencies --    441.4612               472.2292               516.1804
 Red. masses --      3.6237                 4.0489                 2.9026
 Frc consts  --      0.4161                 0.5320                 0.4557
 IR Inten    --      3.6465                 2.0846                10.7437

                     16                     17                     18
                      A                      A                      A
 Frequencies --    523.7140               563.3931               675.6427
 Red. masses --      2.3487                 2.5796                 2.6404
 Frc consts  --      0.3795                 0.4824                 0.7102
 IR Inten    --      1.4651                24.6236                 5.6509

                     19                     20                     21
                      A                      A                      A
 Frequencies --    753.8402               787.8164               828.9766
 Red. masses --      2.8742                 2.3910                 2.1093
 Frc consts  --      0.9623                 0.8743                 0.8540
 IR Inten    --     12.4170                 2.2851                14.8149

                     22                     23                     24
                      A                      A                      A
 Frequencies --    858.4917               862.0477               876.9776
 Red. masses --      2.5231                 2.5484                 1.6761
 Frc consts  --      1.0956                 1.1158                 0.7595
 IR Inten    --     12.4880                 2.0135                14.3600

                     25                     26                     27
                      A                      A                      A
 Frequencies --    897.4826               900.8307               909.6190
 Red. masses --      2.6097                 2.3132                 2.3004
 Frc consts  --      1.2385                 1.1060                 1.1214
 IR Inten    --     41.0227                33.0010                32.3255

                     28                     29                     30
                      A                      A                      A
 Frequencies --    927.3660               947.3249               989.9863
 Red. masses --      1.9467                 1.7177                 1.9254
 Frc consts  --      0.9864                 0.9082                 1.1118
 IR Inten    --     25.0593                 4.3015                 8.3086

                     31                     32                     33
                      A                      A                      A
 Frequencies --   1025.4642              1047.5615              1057.6392
 Red. masses --      1.9900                 2.2676                 2.2600
 Frc consts  --      1.2329                 1.4661                 1.4895
 IR Inten    --     48.9060                13.6284               184.1497

                     34                     35                     36
                      A                      A                      A
 Frequencies --   1063.5102              1077.0757              1087.7682
 Red. masses --      2.0553                 2.3241                 1.6206
 Frc consts  --      1.3696                 1.5886                 1.1298
 IR Inten    --     90.8313               163.7942                48.1066

                     37                     38                     39
                      A                      A                      A
 Frequencies --   1100.0074              1148.4725              1149.5165
 Red. masses --      1.5943                 2.5865                 2.5483
 Frc consts  --      1.1366                 2.0101                 1.9840
 IR Inten    --     20.4852               151.4045                24.5437

                     40                     41                     42
                      A                      A                      A
 Frequencies --   1164.6845              1187.0770              1219.1821
 Red. masses --      2.3346                 3.0801                 1.5307
 Frc consts  --      1.8658                 2.5572                 1.3405
 IR Inten    --     10.4352               165.4866                77.7317

                     43                     44                     45
                      A                      A                      A
 Frequencies --   1225.8384              1239.8042              1247.6549
 Red. masses --      1.3642                 1.6895                 1.8565
 Frc consts  --      1.2078                 1.5301                 1.7027
 IR Inten    --      8.7384                18.6442                92.4324

                     46                     47                     48
                      A                      A                      A
 Frequencies --   1299.8584              1301.4875              1319.5802
 Red. masses --      1.1190                 1.2475                 1.1998
 Frc consts  --      1.1140                 1.2450                 1.2309
 IR Inten    --      4.1689                59.0414                14.1898

                     49                     50                     51
                      A                      A                      A
 Frequencies --   1337.4581              1356.4543              1364.3246
 Red. masses --      1.2566                 1.5273                 1.3103
 Frc consts  --      1.3244                 1.6557                 1.4370
 IR Inten    --     10.5152                10.7869                 3.7029

                     52                     53                     54
                      A                      A                      A
 Frequencies --   1367.0351              1384.9924              1386.8172
 Red. masses --      1.3719                 1.5053                 1.3904
 Frc consts  --      1.5106                 1.7012                 1.5756
 IR Inten    --      2.2199                 2.9461                 5.6590

                     55                     56                     57
                      A                      A                      A
 Frequencies --   1391.5481              1402.2764              1404.4116
 Red. masses --      1.6201                 1.3434                 1.3459
 Frc consts  --      1.8484                 1.5564                 1.5641
 IR Inten    --      8.7068                 4.6700                 2.6502

                     58                     59                     60
                      A                      A                      A
 Frequencies --   1412.3040              1422.6312              1432.8997
 Red. masses --      1.3793                 1.3646                 1.3714
 Frc consts  --      1.6209                 1.6272                 1.6590
 IR Inten    --     22.9770                30.6789                 0.8655

                     61                     62                     63
                      A                      A                      A
 Frequencies --   1449.3116              1474.3394              1477.2368
 Red. masses --      1.1800                 1.0904                 1.0964
 Frc consts  --      1.4603                 1.3965                 1.4097
 IR Inten    --      1.8885                 6.4875                 2.4020

                     64                     65                     66
                      A                      A                      A
 Frequencies --   1482.8239              1485.1919              1490.4717
 Red. masses --      1.0986                 1.1081                 1.0878
 Frc consts  --      1.4232                 1.4401                 1.4238
 IR Inten    --      6.9759                23.6044                 1.7354

                     67                     68                     69
                      A                      A                      A
 Frequencies --   1509.5252              1511.1418              1522.7680
 Red. masses --      1.0990                 1.0972                 1.0915
 Frc consts  --      1.4754                 1.4762                 1.4912
 IR Inten    --      7.3768                12.3578                 4.5238

                     70                     71                     72
                      A                      A                      A
 Frequencies --   3012.5010              3021.3237              3048.1332
 Red. masses --      1.0707                 1.0689                 1.0690
 Frc consts  --      5.7250                 5.7488                 5.8521
 IR Inten    --     79.3736                73.6320                55.0278

                     73                     74                     75
                      A                      A                      A
 Frequencies --   3064.1059              3067.2144              3077.5692
 Red. masses --      1.0645                 1.0629                 1.0666
 Frc consts  --      5.8884                 5.8917                 5.9522
 IR Inten    --     35.7052                38.3667                14.7225

                     76                     77                     78
                      A                      A                      A
 Frequencies --   3078.9589              3080.5265              3112.5171
 Red. masses --      1.0606                 1.0616                 1.0979
 Frc consts  --      5.9237                 5.9353                 6.2665
 IR Inten    --     27.0213                25.4840                47.1996

                     79                     80                     81
                      A                      A                      A
 Frequencies --   3115.6513              3117.3389              3120.9642
 Red. masses --      1.0912                 1.0948                 1.1018
 Frc consts  --      6.2413                 6.2686                 6.3233
 IR Inten    --     18.9422                64.4023                48.8971

                     82                     83                     84
                      A                      A                      A
 Frequencies --   3124.5550              3127.4983              3129.3236
 Red. masses --      1.1024                 1.0951                 1.1016
 Frc consts  --      6.3413                 6.3109                 6.3557
 IR Inten    --     79.9049                36.1989                44.1829

                     85                     86                     87
                      A                      A                      A
 Frequencies --   3131.2710              3133.7060              3157.8932
 Red. masses --      1.0960                 1.0961                 1.0830
 Frc consts  --      6.3315                 6.3418                 6.3632
 IR Inten    --     46.6424                35.9272                30.7510

 - Thermochemistry -
 -------------------
 Temperature   298.150 Kelvin.  Pressure   1.00000 Atm.
 Atom     1 has atomic number  6 and mass  12.00000

 Molecular mass:   186.12559 amu.
 Principal axes and moments of inertia in atomic units:
                           1         2         3
     Eigenvalues --  1069.050213749.190654055.34310
           X            0.99997  -0.00589  -0.00583
           Y            0.00615   0.99900   0.04419
           Z            0.00556  -0.04423   0.99901
 This molecule is an asymmetric top.
 Rotational symmetry number  1.
 Warning -- assumption of classical behavior for rotation
           may cause significant error
 Rotational temperatures (Kelvin)      0.08102     0.02310     0.02136
 Rotational constants (GHZ):           1.68817     0.48137     0.44503
    1 imaginary frequencies ignored.
 Zero-point vibrational energy     736936.9 (Joules/Mol)
                                  176.13214 (Kcal/Mol)
 Warning -- explicit consideration of  16 degrees of freedom as
           vibrations may cause significant error
 Vibrational temperatures:     55.39   134.72   172.07   276.00   292.13
          (Kelvin)            331.07   427.31   484.85   526.41   608.17
                              610.61   635.16   679.43   742.67   753.51
                              810.60   972.10  1084.61  1133.49  1192.71
                             1235.18  1240.29  1261.78  1291.28  1296.09
                             1308.74  1334.27  1362.99  1424.37  1475.41
                             1507.21  1521.71  1530.15  1549.67  1565.06
                             1582.67  1652.40  1653.90  1675.72  1707.94
                             1754.13  1763.71  1783.80  1795.10  1870.21
                             1872.55  1898.58  1924.30  1951.64  1962.96
                             1966.86  1992.70  1995.32  2002.13  2017.56
                             2020.64  2031.99  2046.85  2061.62  2085.24
                             2121.25  2125.41  2133.45  2136.86  2144.46
                             2171.87  2174.20  2190.92  4334.32  4347.01
                             4385.58  4408.56  4413.04  4427.94  4429.94
                             4432.19  4478.22  4482.73  4485.16  4490.37
                             4495.54  4499.77  4502.40  4505.20  4508.70
                             4543.50

 Zero-point correction=                           0.280684 (Hartree/Particle)
 Thermal correction to Energy=                    0.291657
 Thermal correction to Enthalpy=                  0.292601
 Thermal correction to Gibbs Free Energy=         0.243548
 Sum of electronic and zero-point Energies=           -617.211020
 Sum of electronic and thermal Energies=              -617.200048
 Sum of electronic and thermal Enthalpies=            -617.199104
 Sum of electronic and thermal Free Energies=         -617.248157

                     E (Thermal)             CV                S
                      KCal/Mol        Cal/Mol-Kelvin    Cal/Mol-Kelvin
 Total                  183.017             44.798            103.241
 Electronic               0.000              0.000              0.000
 Translational            0.889              2.981             41.570
 Rotational               0.889              2.981             31.164
 Vibrational            181.240             38.837             30.507
 Vibration     1          0.594              1.981              5.335
 Vibration     2          0.603              1.954              3.583
 Vibration     3          0.609              1.933              3.107
 Vibration     4          0.634              1.851              2.210
 Vibration     5          0.639              1.836              2.105
 Vibration     6          0.652              1.795              1.878
 Vibration     7          0.691              1.679              1.434
 Vibration     8          0.718              1.602              1.226
 Vibration     9          0.739              1.542              1.097
 Vibration    10          0.785              1.421              0.883
 Vibration    11          0.786              1.417              0.877
 Vibration    12          0.801              1.380              0.822
 Vibration    13          0.829              1.312              0.731
 Vibration    14          0.871              1.214              0.619
 Vibration    15          0.879              1.197              0.601
 Vibration    16          0.919              1.110              0.517

                           ! Non-Optimized Parameters !
 Normal termination of Gaussian 16 at Mon Nov  5 04:41:27 2018.
