 Gaussian 16, Revision A.03,
 Gaussian 16:  ES64L-G16RevA.03 25-Dec-2016

 ----------------------------------------------------------------------
 #M062X/6-311++G(2d,2p) opt=ModRedundant freq=noraman SCRF=(Solvent=Wat
 er)
 ----------------------------------------------------------------------

 ----------------------------
 D_1a_4a_L_PHI.inp_extract_19
 ----------------------------
 Symbolic Z-matrix:
 Charge =  0 Multiplicity = 1

 SCF Done:  E(RM062X) =  -617.492132737     A.U. after   12 cycles
 SCF Done:  E(RM062X) =  -617.492876391     A.U. after   11 cycles
 SCF Done:  E(RM062X) =  -617.493732313     A.U. after   10 cycles
 SCF Done:  E(RM062X) =  -617.493899599     A.U. after   10 cycles
 SCF Done:  E(RM062X) =  -617.493925281     A.U. after    9 cycles
 SCF Done:  E(RM062X) =  -617.493928295     A.U. after    8 cycles
 SCF Done:  E(RM062X) =  -617.493928671     A.U. after    8 cycles
 SCF Done:  E(RM062X) =  -617.493928831     A.U. after    7 cycles
 Optimization completed.
    -- Stationary point found.
 Normal termination of Gaussian 16 at Mon Nov  5 03:28:03 2018.

 ----------------------------------------------------------------------
 #N Geom=AllCheck Guess=TCheck SCRF=Check GenChk RM062X/6-311++G(2d,2p)
  Freq
 ----------------------------------------------------------------------

 Structure from the checkpoint file:  "D_1a_4a_L_PHI.inp_extract_19.chk"
 ----------------------------
 D_1a_4a_L_PHI.inp_extract_19
 ----------------------------
 Charge =  0 Multiplicity = 1

                         Standard orientation:
 ---------------------------------------------------------------------
 Center     Atomic      Atomic             Coordinates (Angstroms)
 Number     Number       Type             X           Y           Z
 ---------------------------------------------------------------------
      1          6           0       -3.376190   -0.408973    0.600247
      2          6           0       -1.109210    0.477874   -1.000980
      3          6           0        1.755447    1.346049    0.309037
      4          6           0       -2.484506    0.693104    1.165204
      5          6           0        3.546076   -0.345827   -0.082476
      6          8           0        2.600776   -1.395771    0.073152
      7          6           0       -2.548090   -1.286621   -0.318538
      8          6           0        0.797631    0.180087    0.560332
      9          6           0        2.885951    0.912679   -0.622937
     10          6           0        1.580249   -1.050812    0.990931
     11          8           0       -2.018282   -0.519925   -1.396613
     12          8           0        0.096668   -0.166079   -0.627228
     13          6           0       -1.744675    1.412517    0.032378
     14          1           0       -4.198589    0.024592    0.026852
     15          1           0       -3.807271   -1.010335    1.400783
     16          1           0        2.170458    1.665370    1.268609
     17          1           0       -3.071193    1.419562    1.726862
     18          1           0       -1.784230    0.243451    1.870653
     19          1           0       -1.727594   -1.756203    0.233935
     20          1           0       -3.144242   -2.070865   -0.779210
     21          1           0        2.488002    0.705529   -1.617366
     22          1           0        3.630408    1.703045   -0.720122
     23          1           0        2.017345   -0.860342    1.978781
     24          1           0        0.914228   -1.909170    1.058516
     25          1           0       -2.469912    2.003789   -0.529795
     26          1           0       -1.005491    2.113569    0.417848
     27          1           0       -0.905778    1.038311   -1.914138
     28          1           0        4.015804   -0.137523    0.887523
     29          1           0        4.309722   -0.719902   -0.761102
     30          1           0        1.209684    2.192964   -0.107771
     31          1           0        0.109249    0.427892    1.365465
 ---------------------------------------------------------------------

 SCF Done:  E(RM062X) =  -617.493928831     A.U. after    1 cycles

 The electronic state is 1-A.
 Alpha  occ. eigenvalues --  -19.62963 -19.62847 -19.62715 -10.63876 -10.58918
 Alpha  occ. eigenvalues --  -10.58122 -10.57896 -10.57811 -10.53658 -10.53436
 Alpha  occ. eigenvalues --  -10.53234 -10.52950 -10.52906  -1.19702  -1.16488
 Alpha  occ. eigenvalues --   -1.13129  -0.90386  -0.90207  -0.87392  -0.84919
 Alpha  occ. eigenvalues --   -0.74900  -0.74172  -0.73297  -0.71144  -0.66583
 Alpha  occ. eigenvalues --   -0.62300  -0.59664  -0.58705  -0.57260  -0.55995
 Alpha  occ. eigenvalues --   -0.54687  -0.53025  -0.52300  -0.51140  -0.49812
 Alpha  occ. eigenvalues --   -0.48963  -0.46684  -0.46143  -0.45692  -0.45204
 Alpha  occ. eigenvalues --   -0.44137  -0.42591  -0.40884  -0.40203  -0.39213
 Alpha  occ. eigenvalues --   -0.38646  -0.37308  -0.36641  -0.35218  -0.32882
 Alpha  occ. eigenvalues --   -0.31743
 Alpha virt. eigenvalues --   -0.00189   0.00795   0.00849   0.01172   0.02273
 Alpha virt. eigenvalues --    0.02591   0.02646   0.03445   0.03526   0.04707
 Alpha virt. eigenvalues --    0.04739   0.04866   0.05558   0.05956   0.07366

 Mulliken charges:
               1
     1  C   -0.337192
     2  C   -0.154108
     3  C   -0.405210
     4  C   -0.274759
     5  C   -0.218601
     6  O   -0.310931
     7  C   -0.189121
     8  C    0.127297
     9  C   -0.252990
    10  C   -0.457908
    11  O   -0.241490
    12  O   -0.356239
    13  C   -0.297702
    14  H    0.171447
    15  H    0.165446
    16  H    0.220437
    17  H    0.191084
    18  H    0.158312
    19  H    0.118494
    20  H    0.221853
    21  H    0.164798
    22  H    0.184045
    23  H    0.192652
    24  H    0.208150
    25  H    0.224305
    26  H    0.183714
    27  H    0.257454
    28  H    0.138755
    29  H    0.204372
    30  H    0.136487
    31  H    0.227149
 Sum of Mulliken charges =  -0.00000

 Dipole moment (field-independent basis, Debye):
    X=             -0.5977    Y=              3.5283    Z=              3.9177  Tot=              5.3061
 Quadrupole moment (field-independent basis, Debye-Ang):
   XX=            -74.6123   YY=            -80.7441   ZZ=            -81.9429
   XY=              5.6820   XZ=             -2.7921   YZ=             -3.6337

  Exact polarizability: 173.482   3.185 156.556  -1.501  -1.939 153.720
 Approx polarizability: 146.885   1.995 141.803   0.630  -0.487 143.413

 ******    1 imaginary frequencies (negative Signs) ******

                      1                      2                      3
                      A                      A                      A
 Frequencies --    -54.8329                51.7751                98.1006
 Red. masses --      3.7489                 3.9806                 3.5124
 Frc consts  --      0.0066                 0.0063                 0.0199
 IR Inten    --      2.2853                 0.3176                 0.2057

                      4                      5                      6
                      A                      A                      A
 Frequencies --    148.9839               187.3028               208.5049
 Red. masses --      3.8243                 2.7868                 3.4001
 Frc consts  --      0.0500                 0.0576                 0.0871
 IR Inten    --      1.3936                 0.7358                12.4109

                      7                      8                      9
                      A                      A                      A
 Frequencies --    254.8276               283.9977               342.7763
 Red. masses --      2.6878                 2.3139                 2.0202
 Frc consts  --      0.1028                 0.1100                 0.1399
 IR Inten    --      1.6113                 0.2439                 3.4619

                     10                     11                     12
                      A                      A                      A
 Frequencies --    382.7369               412.8704               425.1399
 Red. masses --      2.3770                 2.0861                 2.8108
 Frc consts  --      0.2052                 0.2095                 0.2993
 IR Inten    --      9.0165                11.7165                 2.6457

                     13                     14                     15
                      A                      A                      A
 Frequencies --    438.6623               489.5239               521.5840
 Red. masses --      2.8397                 3.7049                 2.4967
 Frc consts  --      0.3219                 0.5231                 0.4002
 IR Inten    --      1.5995                 4.1662                 3.0341

                     16                     17                     18
                      A                      A                      A
 Frequencies --    531.3231               545.9628               671.3524
 Red. masses --      3.3990                 2.0438                 2.5585
 Frc consts  --      0.5654                 0.3589                 0.6794
 IR Inten    --     10.3914                 9.5943                 2.8333

                     19                     20                     21
                      A                      A                      A
 Frequencies --    754.1172               807.5670               834.6629
 Red. masses --      2.5967                 2.2810                 2.2138
 Frc consts  --      0.8701                 0.8765                 0.9087
 IR Inten    --      2.5644                 2.3395                 9.3621

                     22                     23                     24
                      A                      A                      A
 Frequencies --    850.9744               866.9249               879.4740
 Red. masses --      3.3732                 2.0976                 1.7728
 Frc consts  --      1.4392                 0.9288                 0.8079
 IR Inten    --      5.9571                 4.9017                19.1629

                     25                     26                     27
                      A                      A                      A
 Frequencies --    898.2180               899.9247               916.6049
 Red. masses --      2.2120                 2.5259                 2.4620
 Frc consts  --      1.0515                 1.2053                 1.2187
 IR Inten    --     27.3411                27.8669                45.3259

                     28                     29                     30
                      A                      A                      A
 Frequencies --    926.3517               942.8569               992.2198
 Red. masses --      2.0148                 1.6968                 2.0431
 Frc consts  --      1.0187                 0.8887                 1.1851
 IR Inten    --     36.5677                 9.2452                34.5533

                     31                     32                     33
                      A                      A                      A
 Frequencies --   1030.0906              1040.9331              1061.9873
 Red. masses --      1.9639                 2.3079                 2.0731
 Frc consts  --      1.2278                 1.4734                 1.3775
 IR Inten    --     34.2840                78.5164                21.8931

                     34                     35                     36
                      A                      A                      A
 Frequencies --   1067.2386              1072.2869              1079.0612
 Red. masses --      2.0555                 2.1151                 1.6911
 Frc consts  --      1.3794                 1.4329                 1.1601
 IR Inten    --    237.0032                48.2667                61.3577

                     37                     38                     39
                      A                      A                      A
 Frequencies --   1102.9137              1148.0620              1158.6642
 Red. masses --      1.5795                 2.5071                 2.4955
 Frc consts  --      1.1320                 1.9470                 1.9739
 IR Inten    --     34.3522                29.2720               170.3897

                     40                     41                     42
                      A                      A                      A
 Frequencies --   1166.6572              1187.5511              1217.5333
 Red. masses --      2.6332                 3.3365                 1.4664
 Frc consts  --      2.1116                 2.7724                 1.2808
 IR Inten    --     19.6065               148.8175                76.1447

                     43                     44                     45
                      A                      A                      A
 Frequencies --   1226.4918              1239.8704              1247.8671
 Red. masses --      1.3494                 1.7063                 1.8574
 Frc consts  --      1.1960                 1.5454                 1.7041
 IR Inten    --     18.4005                14.4300                85.3275

                     46                     47                     48
                      A                      A                      A
 Frequencies --   1296.4053              1301.1494              1318.9225
 Red. masses --      1.2352                 1.1214                 1.1675
 Frc consts  --      1.2231                 1.1185                 1.1966
 IR Inten    --     43.3760                11.4745                 9.0455

                     49                     50                     51
                      A                      A                      A
 Frequencies --   1337.3746              1355.1755              1365.5726
 Red. masses --      1.2478                 1.4006                 1.3996
 Frc consts  --      1.3149                 1.5155                 1.5378
 IR Inten    --     13.8537                17.7222                 4.2014

                     52                     53                     54
                      A                      A                      A
 Frequencies --   1368.3355              1384.5113              1387.1635
 Red. masses --      1.3213                 1.3595                 1.5049
 Frc consts  --      1.4576                 1.5354                 1.7061
 IR Inten    --      3.9764                 4.4224                 8.0082

                     55                     56                     57
                      A                      A                      A
 Frequencies --   1391.1348              1395.7383              1405.8077
 Red. masses --      1.6016                 1.3265                 1.3954
 Frc consts  --      1.8262                 1.5225                 1.6248
 IR Inten    --      6.5359                13.4689                 2.2816

                     58                     59                     60
                      A                      A                      A
 Frequencies --   1410.1772              1419.3987              1430.3467
 Red. masses --      1.3995                 1.3325                 1.3624
 Frc consts  --      1.6397                 1.5818                 1.6423
 IR Inten    --     14.9694                12.7319                 4.9488

                     61                     62                     63
                      A                      A                      A
 Frequencies --   1433.8922              1474.2168              1480.2013
 Red. masses --      1.3711                 1.0907                 1.0989
 Frc consts  --      1.6609                 1.3966                 1.4186
 IR Inten    --     12.1811                 4.7970                 2.9832

                     64                     65                     66
                      A                      A                      A
 Frequencies --   1484.7430              1489.3084              1491.4964
 Red. masses --      1.1102                 1.0852                 1.0877
 Frc consts  --      1.4420                 1.4181                 1.4256
 IR Inten    --     11.3225                20.7015                 3.3384

                     67                     68                     69
                      A                      A                      A
 Frequencies --   1501.4533              1509.5279              1512.9050
 Red. masses --      1.1037                 1.1015                 1.0947
 Frc consts  --      1.4660                 1.4788                 1.4763
 IR Inten    --     15.9629                 6.4863                 5.6365

                     70                     71                     72
                      A                      A                      A
 Frequencies --   3012.5518              3024.9559              3044.1312
 Red. masses --      1.0707                 1.0690                 1.0692
 Frc consts  --      5.7254                 5.7634                 5.8375
 IR Inten    --     75.4631                70.3169                53.0759

                     73                     74                     75
                      A                      A                      A
 Frequencies --   3062.7564              3066.5007              3073.4155
 Red. masses --      1.0640                 1.0633                 1.0681
 Frc consts  --      5.8804                 5.8911                 5.9441
 IR Inten    --     36.3501                33.0432                24.4447

                     76                     77                     78
                      A                      A                      A
 Frequencies --   3077.0723              3077.7456              3087.9863
 Red. masses --      1.0677                 1.0611                 1.0795
 Frc consts  --      5.9565                 5.9223                 6.0648
 IR Inten    --      7.4881                28.4254                86.2850

                     79                     80                     81
                      A                      A                      A
 Frequencies --   3112.2424              3113.7294              3120.1388
 Red. masses --      1.0991                 1.0980                 1.1023
 Frc consts  --      6.2722                 6.2724                 6.3229
 IR Inten    --     35.6395                48.1801                72.9552

                     82                     83                     84
                      A                      A                      A
 Frequencies --   3123.0746              3129.4427              3130.7850
 Red. masses --      1.1030                 1.0946                 1.0962
 Frc consts  --      6.3383                 6.3162                 6.3306
 IR Inten    --     64.1379                14.9280                48.1754

                     85                     86                     87
                      A                      A                      A
 Frequencies --   3131.9791              3136.3667              3140.1428
 Red. masses --      1.0955                 1.0966                 1.0859
 Frc consts  --      6.3315                 6.3555                 6.3084
 IR Inten    --     41.5097                43.4906                40.2945

 - Thermochemistry -
 -------------------
 Temperature   298.150 Kelvin.  Pressure   1.00000 Atm.
 Atom     1 has atomic number  6 and mass  12.00000

 Molecular mass:   186.12559 amu.
 Principal axes and moments of inertia in atomic units:
                           1         2         3
     Eigenvalues --  1043.938993891.748974086.05119
           X            0.99991   0.00891  -0.00980
           Y           -0.00936   0.99884  -0.04720
           Z            0.00937   0.04729   0.99884
 This molecule is an asymmetric top.
 Rotational symmetry number  1.
 Warning -- assumption of classical behavior for rotation
           may cause significant error
 Rotational temperatures (Kelvin)      0.08297     0.02226     0.02120
 Rotational constants (GHZ):           1.72878     0.46374     0.44168
    1 imaginary frequencies ignored.
 Zero-point vibrational energy     737034.3 (Joules/Mol)
                                  176.15541 (Kcal/Mol)
 Warning -- explicit consideration of  16 degrees of freedom as
           vibrations may cause significant error
 Vibrational temperatures:     74.49   141.14   214.35   269.49   299.99
          (Kelvin)            366.64   408.61   493.18   550.67   594.03
                              611.68   631.14   704.32   750.44   764.46
                              785.52   965.93  1085.01  1161.91  1200.89
                             1224.36  1247.31  1265.37  1292.34  1294.79
                             1318.79  1332.81  1356.56  1427.58  1482.07
                             1497.67  1527.96  1535.52  1542.78  1552.53
                             1586.85  1651.81  1667.06  1678.56  1708.62
                             1751.76  1764.65  1783.90  1795.40  1865.24
                             1872.06  1897.64  1924.18  1949.80  1964.75
                             1968.73  1992.00  1995.82  2001.53  2008.16
                             2022.64  2028.93  2042.20  2057.95  2063.05
                             2121.07  2129.68  2136.21  2142.78  2145.93
                             2160.26  2171.87  2176.73  4334.39  4352.24
                             4379.83  4406.62  4412.01  4421.96  4427.22
                             4428.19  4442.92  4477.82  4479.96  4489.18
                             4493.41  4502.57  4504.50  4506.22  4512.53
                             4517.97

 Zero-point correction=                           0.280722 (Hartree/Particle)
 Thermal correction to Energy=                    0.291554
 Thermal correction to Enthalpy=                  0.292499
 Thermal correction to Gibbs Free Energy=         0.244063
 Sum of electronic and zero-point Energies=           -617.213207
 Sum of electronic and thermal Energies=              -617.202374
 Sum of electronic and thermal Enthalpies=            -617.201430
 Sum of electronic and thermal Free Energies=         -617.249866

                     E (Thermal)             CV                S
                      KCal/Mol        Cal/Mol-Kelvin    Cal/Mol-Kelvin
 Total                  182.953             44.665            101.941
 Electronic               0.000              0.000              0.000
 Translational            0.889              2.981             41.570
 Rotational               0.889              2.981             31.185
 Vibrational            181.176             38.703             29.186
 Vibration     1          0.596              1.977              4.748
 Vibration     2          0.604              1.951              3.492
 Vibration     3          0.618              1.904              2.685
 Vibration     4          0.632              1.857              2.254
 Vibration     5          0.642              1.828              2.057
 Vibration     6          0.665              1.755              1.697
 Vibration     7          0.682              1.703              1.509
 Vibration     8          0.722              1.590              1.199
 Vibration     9          0.752              1.507              1.028
 Vibration    10          0.777              1.442              0.917
 Vibration    11          0.787              1.416              0.875
 Vibration    12          0.799              1.386              0.831
 Vibration    13          0.845              1.273              0.685
 Vibration    14          0.877              1.202              0.606
 Vibration    15          0.886              1.181              0.584
 Vibration    16          0.901              1.149              0.553

 Optimization completed.
    -- Stationary point found.
 Normal termination of Gaussian 16 at Mon Nov  5 04:27:15 2018.
