 Gaussian 16, Revision A.03,
 Gaussian 16:  ES64L-G16RevA.03 25-Dec-2016

 ----------------------------------------------------------------------
 #M062X/6-311++G(2d,2p) opt=ModRedundant freq=noraman SCRF=(Solvent=Wat
 er)
 ----------------------------------------------------------------------

 ---------------------------
 D_1a_4a_L_PHI.inp_extract_9
 ---------------------------
 Symbolic Z-matrix:
 Charge =  0 Multiplicity = 1

 SCF Done:  E(RM062X) =  -617.502454903     A.U. after   13 cycles
 SCF Done:  E(RM062X) =  -617.504042361     A.U. after   10 cycles
 SCF Done:  E(RM062X) =  -617.504158623     A.U. after    9 cycles
 SCF Done:  E(RM062X) =  -617.504170466     A.U. after    9 cycles
 SCF Done:  E(RM062X) =  -617.504171180     A.U. after    8 cycles
 SCF Done:  E(RM062X) =  -617.504171218     A.U. after    7 cycles
 Optimization completed.
    -- Stationary point found.
 Normal termination of Gaussian 16 at Mon Nov  5 04:16:52 2018.

 ----------------------------------------------------------------------
 #N Geom=AllCheck Guess=TCheck SCRF=Check GenChk RM062X/6-311++G(2d,2p)
  Freq
 ----------------------------------------------------------------------

 Structure from the checkpoint file:  "D_1a_4a_L_PHI.inp_extract_9.chk"
 ---------------------------
 D_1a_4a_L_PHI.inp_extract_9
 ---------------------------
 Charge =  0 Multiplicity = 1

                         Standard orientation:
 ---------------------------------------------------------------------
 Center     Atomic      Atomic             Coordinates (Angstroms)
 Number     Number       Type             X           Y           Z
 ---------------------------------------------------------------------
      1          6           0        3.406136    0.489328    0.594692
      2          6           0        1.096982   -0.679711   -0.660041
      3          6           0       -1.744706    1.499696   -0.104255
      4          6           0        2.602724   -0.572899    1.343058
      5          6           0       -3.413665   -0.160618    0.712763
      6          8           0       -2.673345   -1.212897    0.107976
      7          6           0        2.506315    1.214863   -0.391849
      8          6           0       -1.038645    0.349529   -0.809966
      9          6           0       -2.505017    0.988680    1.118906
     10          6           0       -2.018405   -0.787837   -1.072290
     11          8           0        1.885087    0.303383   -1.299273
     12          8           0        0.025752   -0.093239    0.031206
     13          6           0        1.912602   -1.489947    0.334419
     14          1           0        4.224966    0.015669    0.047631
     15          1           0        3.842766    1.212736    1.283958
     16          1           0       -2.446874    1.953773   -0.807385
     17          1           0        3.247156   -1.155276    2.000639
     18          1           0        1.851227   -0.087502    1.968906
     19          1           0        1.734547    1.776572    0.141526
     20          1           0        3.069257    1.907802   -1.013132
     21          1           0       -1.801820    0.636127    1.874791
     22          1           0       -3.100689    1.786000    1.563646
     23          1           0       -2.756704   -0.454420   -1.812210
     24          1           0       -1.502594   -1.659988   -1.471270
     25          1           0        2.661802   -2.049102   -0.228987
     26          1           0        1.255855   -2.207240    0.825074
     27          1           0        0.728181   -1.308394   -1.473152
     28          1           0       -4.176878    0.193573    0.007916
     29          1           0       -3.916642   -0.596536    1.573346
     30          1           0       -1.012597    2.258973    0.169338
     31          1           0       -0.626838    0.692760   -1.762522
 ---------------------------------------------------------------------

 SCF Done:  E(RM062X) =  -617.504171218     A.U. after    1 cycles

 The electronic state is 1-A.
 Alpha  occ. eigenvalues --  -19.63022 -19.62874 -19.62842 -10.63434 -10.58746
 Alpha  occ. eigenvalues --  -10.58097 -10.57914 -10.57672 -10.53280 -10.53027
 Alpha  occ. eigenvalues --  -10.52966 -10.52926 -10.52827  -1.20038  -1.16441
 Alpha  occ. eigenvalues --   -1.13160  -0.91007  -0.89674  -0.86934  -0.84646
 Alpha  occ. eigenvalues --   -0.74504  -0.73944  -0.72735  -0.71513  -0.66242
 Alpha  occ. eigenvalues --   -0.62765  -0.59413  -0.58313  -0.57838  -0.55733
 Alpha  occ. eigenvalues --   -0.54315  -0.53011  -0.52006  -0.50781  -0.49821
 Alpha  occ. eigenvalues --   -0.48269  -0.46728  -0.46055  -0.45647  -0.45126
 Alpha  occ. eigenvalues --   -0.43667  -0.43025  -0.41008  -0.40247  -0.38674
 Alpha  occ. eigenvalues --   -0.38429  -0.37617  -0.36474  -0.35222  -0.33299
 Alpha  occ. eigenvalues --   -0.31849
 Alpha virt. eigenvalues --   -0.00152   0.00830   0.00845   0.01044   0.02224
 Alpha virt. eigenvalues --    0.02526   0.02701   0.03196   0.03341   0.04627
 Alpha virt. eigenvalues --    0.04856   0.04863   0.05277   0.05922   0.07167

 Mulliken charges:
               1
     1  C   -0.352736
     2  C   -0.115283
     3  C   -0.349052
     4  C   -0.341450
     5  C   -0.219821
     6  O   -0.300378
     7  C   -0.124446
     8  C   -0.013136
     9  C   -0.315124
    10  C   -0.374208
    11  O   -0.296741
    12  O   -0.218535
    13  C   -0.321557
    14  H    0.163626
    15  H    0.169756
    16  H    0.211117
    17  H    0.183995
    18  H    0.175921
    19  H    0.116897
    20  H    0.206947
    21  H    0.164362
    22  H    0.178537
    23  H    0.180662
    24  H    0.198331
    25  H    0.187650
    26  H    0.173123
    27  H    0.246440
    28  H    0.149423
    29  H    0.199789
    30  H    0.160191
    31  H    0.275702
 Sum of Mulliken charges =  -0.00000

 Dipole moment (field-independent basis, Debye):
    X=             -0.0897    Y=              1.7747    Z=              0.0015  Tot=              1.7770
 Quadrupole moment (field-independent basis, Debye-Ang):
   XX=            -74.4197   YY=            -79.5501   ZZ=            -80.4456
   XY=             -5.9269   XZ=              4.5929   YZ=              2.2495

  Exact polarizability: 170.259   0.751 157.500  -0.339   1.003 155.552
 Approx polarizability: 145.266  -0.537 142.045  -1.157   0.766 143.459

                      1                      2                      3
                      A                      A                      A
 Frequencies --     40.2330                53.0194                74.6107
 Red. masses --      3.7010                 3.8985                 3.4938
 Frc consts  --      0.0035                 0.0065                 0.0115
 IR Inten    --      1.8241                 2.3203                 1.6984

                      4                      5                      6
                      A                      A                      A
 Frequencies --    147.0272               164.7589               243.7692
 Red. masses --      3.1826                 3.8651                 3.0295
 Frc consts  --      0.0405                 0.0618                 0.1061
 IR Inten    --      3.9773                 2.7801                 6.1373

                      7                      8                      9
                      A                      A                      A
 Frequencies --    248.1293               280.1595               344.2661
 Red. masses --      2.4325                 2.3220                 2.1940
 Frc consts  --      0.0882                 0.1074                 0.1532
 IR Inten    --      1.7788                 8.1433                 2.2104

                     10                     11                     12
                      A                      A                      A
 Frequencies --    378.7733               413.4740               435.6936
 Red. masses --      2.1278                 2.4619                 3.5576
 Frc consts  --      0.1799                 0.2480                 0.3979
 IR Inten    --      3.3714                 1.8228                11.1517

                     13                     14                     15
                      A                      A                      A
 Frequencies --    438.0689               510.3031               521.1460
 Red. masses --      2.1346                 3.0274                 2.6333
 Frc consts  --      0.2414                 0.4645                 0.4214
 IR Inten    --      2.3742                13.7768                 6.3666

                     16                     17                     18
                      A                      A                      A
 Frequencies --    530.2886               576.2678               671.4530
 Red. masses --      2.3764                 3.3353                 2.5458
 Frc consts  --      0.3937                 0.6526                 0.6763
 IR Inten    --      4.2955                 8.4689                 5.8306

                     19                     20                     21
                      A                      A                      A
 Frequencies --    751.5174               834.9204               838.1529
 Red. masses --      2.5473                 1.5787                 3.4414
 Frc consts  --      0.8476                 0.6484                 1.4244
 IR Inten    --      5.9123                 1.3693                20.1904

                     22                     23                     24
                      A                      A                      A
 Frequencies --    849.7003               871.3268               878.6627
 Red. masses --      3.4387                 1.9667                 1.7105
 Frc consts  --      1.4628                 0.8797                 0.7780
 IR Inten    --      1.9704                13.9194                14.1805

                     25                     26                     27
                      A                      A                      A
 Frequencies --    895.5612               905.3917               908.9641
 Red. masses --      2.5288                 2.5844                 2.4103
 Frc consts  --      1.1950                 1.2482                 1.1733
 IR Inten    --     38.5307                35.1043                20.8422

                     28                     29                     30
                      A                      A                      A
 Frequencies --    932.3734               952.7170              1008.4791
 Red. masses --      1.7803                 1.6713                 1.6828
 Frc consts  --      0.9118                 0.8938                 1.0084
 IR Inten    --     13.6062                 9.0782                28.9320

                     31                     32                     33
                      A                      A                      A
 Frequencies --   1034.2440              1043.9745              1056.1443
 Red. masses --      2.1725                 2.1704                 2.2579
 Frc consts  --      1.3692                 1.3937                 1.4839
 IR Inten    --     13.1974               100.7541                54.8524

                     34                     35                     36
                      A                      A                      A
 Frequencies --   1061.7743              1067.7500              1074.8918
 Red. masses --      1.8651                 1.9351                 2.4819
 Frc consts  --      1.2388                 1.2998                 1.6895
 IR Inten    --    146.5520                61.1483               140.4310

                     37                     38                     39
                      A                      A                      A
 Frequencies --   1105.5742              1146.0688              1154.5152
 Red. masses --      1.5394                 2.2071                 2.8665
 Frc consts  --      1.1086                 1.7080                 2.2511
 IR Inten    --     30.2318                81.7786               124.8032

                     40                     41                     42
                      A                      A                      A
 Frequencies --   1167.4823              1184.5236              1213.0447
 Red. masses --      3.4321                 2.5400                 1.4161
 Frc consts  --      2.7562                 2.0997                 1.2277
 IR Inten    --    122.5342                22.8993                16.0616

                     43                     44                     45
                      A                      A                      A
 Frequencies --   1230.8391              1235.5027              1248.4352
 Red. masses --      1.4776                 1.5199                 1.8091
 Frc consts  --      1.3189                 1.3669                 1.6613
 IR Inten    --     51.2720                54.2229                39.4886

                     46                     47                     48
                      A                      A                      A
 Frequencies --   1288.4468              1303.3280              1319.2768
 Red. masses --      1.2088                 1.1371                 1.1497
 Frc consts  --      1.1823                 1.1381                 1.1790
 IR Inten    --     24.1306                 3.7500                 7.2724

                     49                     50                     51
                      A                      A                      A
 Frequencies --   1337.5178              1357.9303              1366.9265
 Red. masses --      1.2148                 1.3404                 1.3391
 Frc consts  --      1.2804                 1.4563                 1.4742
 IR Inten    --     10.8834                18.3293                 1.9286

                     52                     53                     54
                      A                      A                      A
 Frequencies --   1369.7259              1378.7273              1387.2492
 Red. masses --      1.6439                 1.3459                 1.4757
 Frc consts  --      1.8172                 1.5073                 1.6732
 IR Inten    --      5.5735                42.4097                 1.8091

                     55                     56                     57
                      A                      A                      A
 Frequencies --   1392.5785              1396.4310              1401.0925
 Red. masses --      1.6780                 1.4434                 1.3587
 Frc consts  --      1.9173                 1.6583                 1.5715
 IR Inten    --     12.0651                24.3446                 4.1890

                     58                     59                     60
                      A                      A                      A
 Frequencies --   1407.7512              1424.7610              1430.2584
 Red. masses --      1.4015                 1.4331                 1.4001
 Frc consts  --      1.6364                 1.7140                 1.6875
 IR Inten    --     10.2209                24.1850                 2.2446

                     61                     62                     63
                      A                      A                      A
 Frequencies --   1439.6534              1476.4650              1476.9039
 Red. masses --      1.2892                 1.1060                 1.0875
 Frc consts  --      1.5744                 1.4205                 1.3976
 IR Inten    --      4.7874                 5.4081                 5.7145

                     64                     65                     66
                      A                      A                      A
 Frequencies --   1482.5279              1486.0340              1493.9220
 Red. masses --      1.0860                 1.1187                 1.0863
 Frc consts  --      1.4063                 1.4556                 1.4284
 IR Inten    --      8.6019                16.1317                 4.5943

                     67                     68                     69
                      A                      A                      A
 Frequencies --   1495.8029              1509.2694              1510.9098
 Red. masses --      1.1064                 1.0940                 1.1006
 Frc consts  --      1.4585                 1.4683                 1.4803
 IR Inten    --     12.6742                 5.5734                 6.8598

                     70                     71                     72
                      A                      A                      A
 Frequencies --   3011.6892              3021.7596              3056.1032
 Red. masses --      1.0708                 1.0695                 1.0688
 Frc consts  --      5.7225                 5.7537                 5.8816
 IR Inten    --     76.9463                64.7670                42.1711

                     73                     74                     75
                      A                      A                      A
 Frequencies --   3063.3116              3063.7013              3071.3174
 Red. masses --      1.0669                 1.0691                 1.0694
 Frc consts  --      5.8990                 5.9125                 5.9436
 IR Inten    --     18.6085                33.7990                 5.0312

                     76                     77                     78
                      A                      A                      A
 Frequencies --   3073.1324              3075.3503              3078.9508
 Red. masses --      1.0678                 1.0684                 1.0604
 Frc consts  --      5.9414                 5.9537                 5.9228
 IR Inten    --     76.0070                22.5503                25.5556

                     79                     80                     81
                      A                      A                      A
 Frequencies --   3084.8535              3112.6872              3117.3418
 Red. masses --      1.0803                 1.0981                 1.0999
 Frc consts  --      6.0569                 6.2685                 6.2974
 IR Inten    --     88.3961                38.8186                35.2358

                     82                     83                     84
                      A                      A                      A
 Frequencies --   3119.1095              3124.2601              3125.1738
 Red. masses --      1.1022                 1.0959                 1.1003
 Frc consts  --      6.3176                 6.3024                 6.3314
 IR Inten    --     60.1257                76.5298                22.1195

                     85                     86                     87
                      A                      A                      A
 Frequencies --   3129.1867              3130.8215              3135.4095
 Red. masses --      1.1036                 1.0963                 1.0988
 Frc consts  --      6.3667                 6.3316                 6.3646
 IR Inten    --     45.2051                45.0700                45.5812

 - Thermochemistry -
 -------------------
 Temperature   298.150 Kelvin.  Pressure   1.00000 Atm.
 Atom     1 has atomic number  6 and mass  12.00000

 Molecular mass:   186.12559 amu.
 Principal axes and moments of inertia in atomic units:
                           1         2         3
     Eigenvalues --  1079.893223952.383444063.77468
           X            0.99991  -0.01076   0.00827
           Y            0.01026   0.99824   0.05846
           Z           -0.00889  -0.05837   0.99826
 This molecule is an asymmetric top.
 Rotational symmetry number  1.
 Warning -- assumption of classical behavior for rotation
           may cause significant error
 Rotational temperatures (Kelvin)      0.08021     0.02191     0.02131
 Rotational constants (GHZ):           1.67122     0.45662     0.44410
 Zero-point vibrational energy     737208.4 (Joules/Mol)
                                  176.19704 (Kcal/Mol)
 Warning -- explicit consideration of  17 degrees of freedom as
           vibrations may cause significant error
 Vibrational temperatures:     57.89    76.28   107.35   211.54   237.05
          (Kelvin)            350.73   357.00   403.09   495.32   544.97
                              594.90   626.87   630.28   734.21   749.81
                              762.97   829.12   966.07  1081.27  1201.26
                             1205.92  1222.53  1253.64  1264.20  1288.51
                             1302.66  1307.80  1341.48  1370.75  1450.98
                             1488.05  1502.05  1519.56  1527.66  1536.25
                             1546.53  1590.67  1648.94  1661.09  1679.75
                             1704.27  1745.30  1770.90  1777.61  1796.22
                             1853.79  1875.20  1898.15  1924.39  1953.76
                             1966.70  1970.73  1983.68  1995.94  2003.61
                             2009.15  2015.86  2025.44  2049.91  2057.82
                             2071.34  2124.30  2124.94  2133.03  2138.07
                             2149.42  2152.13  2171.50  2173.86  4333.15
                             4347.64  4397.05  4407.42  4407.98  4418.94
                             4421.55  4424.74  4429.92  4438.42  4478.46
                             4485.16  4487.70  4495.11  4496.43  4502.20
                             4504.55  4511.15

 Zero-point correction=                           0.280788 (Hartree/Particle)
 Thermal correction to Energy=                    0.292473
 Thermal correction to Enthalpy=                  0.293417
 Thermal correction to Gibbs Free Energy=         0.242286
 Sum of electronic and zero-point Energies=           -617.223383
 Sum of electronic and thermal Energies=              -617.211699
 Sum of electronic and thermal Enthalpies=            -617.210755
 Sum of electronic and thermal Free Energies=         -617.261885

                     E (Thermal)             CV                S
                      KCal/Mol        Cal/Mol-Kelvin    Cal/Mol-Kelvin
 Total                  183.529             46.471            107.613
 Electronic               0.000              0.000              0.000
 Translational            0.889              2.981             41.570
 Rotational               0.889              2.981             31.229
 Vibrational            181.752             40.509             34.815
 Vibration     1          0.594              1.981              5.248
 Vibration     2          0.596              1.976              4.701
 Vibration     3          0.599              1.966              4.028
 Vibration     4          0.617              1.906              2.710
 Vibration     5          0.623              1.886              2.494
 Vibration     6          0.659              1.773              1.775
 Vibration     7          0.662              1.766              1.744
 Vibration     8          0.680              1.710              1.533
 Vibration     9          0.723              1.587              1.192
 Vibration    10          0.749              1.515              1.044
 Vibration    11          0.777              1.441              0.914
 Vibration    12          0.796              1.392              0.840
 Vibration    13          0.798              1.387              0.833
 Vibration    14          0.865              1.227              0.633
 Vibration    15          0.876              1.203              0.607
 Vibration    16          0.885              1.183              0.587
 Vibration    17          0.933              1.083              0.492

 Optimization completed.
    -- Stationary point found.
 Normal termination of Gaussian 16 at Mon Nov  5 05:11:58 2018.
