 Gaussian 16, Revision A.03,
 Gaussian 16:  ES64L-G16RevA.03 25-Dec-2016

 ----------------------------------------------------------------------
 #M062X/6-311++G(2d,2p) opt=ModRedundant freq=noraman SCRF=(Solvent=Wat
 er)
 ----------------------------------------------------------------------

 ----------------------------
 D_1a_4a_L_PHI.inp_extract_11
 ----------------------------
 Symbolic Z-matrix:
 Charge =  0 Multiplicity = 1

 SCF Done:  E(RM062X) =  -617.499751735     A.U. after   12 cycles
 SCF Done:  E(RM062X) =  -617.501300345     A.U. after   10 cycles
 SCF Done:  E(RM062X) =  -617.501414730     A.U. after    9 cycles
 SCF Done:  E(RM062X) =  -617.501426846     A.U. after    9 cycles
 SCF Done:  E(RM062X) =  -617.501427819     A.U. after    7 cycles
 SCF Done:  E(RM062X) =  -617.501428037     A.U. after    7 cycles
 Optimization completed.
    -- Stationary point found.
 Normal termination of Gaussian 16 at Mon Nov  5 01:23:45 2018.

 ----------------------------------------------------------------------
 #N Geom=AllCheck Guess=TCheck SCRF=Check GenChk RM062X/6-311++G(2d,2p)
  Freq
 ----------------------------------------------------------------------

 Structure from the checkpoint file:  "D_1a_4a_L_PHI.inp_extract_11.chk"
 ----------------------------
 D_1a_4a_L_PHI.inp_extract_11
 ----------------------------
 Charge =  0 Multiplicity = 1

                         Standard orientation:
 ---------------------------------------------------------------------
 Center     Atomic      Atomic             Coordinates (Angstroms)
 Number     Number       Type             X           Y           Z
 ---------------------------------------------------------------------
      1          6           0       -3.376294    0.075997    0.844572
      2          6           0       -1.097148    0.106520   -0.909908
      3          6           0        1.994388   -1.511272    0.215761
      4          6           0       -2.339584    1.189855    0.980703
      5          6           0        3.248290    0.585324    0.712880
      6          8           0        2.381195    1.313611   -0.147030
      7          6           0       -2.720122   -1.166545    0.266283
      8          6           0        1.149591   -0.702374   -0.758881
      9          6           0        2.538686   -0.611682    1.324981
     10          6           0        1.925711    0.523954   -1.228216
     11          8           0       -2.090535   -0.891725   -0.986282
     12          8           0       -0.042918   -0.321289   -0.080634
     13          6           0       -1.661063    1.412606   -0.369638
     14          1           0       -4.179743    0.398767    0.177960
     15          1           0       -3.823146   -0.168683    1.808679
     16          1           0        2.825990   -1.951896   -0.338970
     17          1           0       -2.802953    2.112904    1.327173
     18          1           0       -1.590686    0.902675    1.722041
     19          1           0       -1.976988   -1.561508    0.963957
     20          1           0       -3.449616   -1.946955    0.061841
     21          1           0        1.720274   -0.257068    1.952800
     22          1           0        3.232907   -1.161682    1.960503
     23          1           0        2.775785    0.190563   -1.836542
     24          1           0        1.299607    1.170804   -1.841626
     25          1           0       -2.389367    1.788266   -1.091217
     26          1           0       -0.850544    2.137991   -0.298508
     27          1           0       -0.745406    0.228181   -1.935315
     28          1           0        4.124504    0.252552    0.141798
     29          1           0        3.581244    1.286041    1.475539
     30          1           0        1.397266   -2.327292    0.621202
     31          1           0        0.894224   -1.312735   -1.630972
 ---------------------------------------------------------------------

 SCF Done:  E(RM062X) =  -617.501428037     A.U. after    1 cycles

 The electronic state is 1-A.
 Alpha  occ. eigenvalues --  -19.62941 -19.62881 -19.62846 -10.63476 -10.59022
 Alpha  occ. eigenvalues --  -10.58174 -10.57943 -10.57661 -10.53326 -10.52989
 Alpha  occ. eigenvalues --  -10.52950 -10.52948 -10.52821  -1.19887  -1.16520
 Alpha  occ. eigenvalues --   -1.13255  -0.90901  -0.89734  -0.86892  -0.84789
 Alpha  occ. eigenvalues --   -0.74640  -0.73726  -0.72873  -0.71642  -0.66427
 Alpha  occ. eigenvalues --   -0.62749  -0.59600  -0.57952  -0.57777  -0.55748
 Alpha  occ. eigenvalues --   -0.54532  -0.53358  -0.51948  -0.50725  -0.49747
 Alpha  occ. eigenvalues --   -0.48136  -0.47174  -0.46042  -0.45397  -0.45221
 Alpha  occ. eigenvalues --   -0.43660  -0.42620  -0.41380  -0.40416  -0.38763
 Alpha  occ. eigenvalues --   -0.38249  -0.37767  -0.36988  -0.34629  -0.33201
 Alpha  occ. eigenvalues --   -0.31833
 Alpha virt. eigenvalues --   -0.00154   0.00799   0.00827   0.01085   0.02223
 Alpha virt. eigenvalues --    0.02564   0.02677   0.03210   0.03275   0.04698
 Alpha virt. eigenvalues --    0.04809   0.04896   0.05263   0.05861   0.07021

 Mulliken charges:
               1
     1  C   -0.355032
     2  C   -0.250349
     3  C   -0.454812
     4  C   -0.332959
     5  C   -0.206563
     6  O   -0.283665
     7  C   -0.169719
     8  C    0.107465
     9  C   -0.300251
    10  C   -0.402934
    11  O   -0.295244
    12  O   -0.243271
    13  C   -0.194904
    14  H    0.165866
    15  H    0.166970
    16  H    0.210836
    17  H    0.183099
    18  H    0.172492
    19  H    0.154397
    20  H    0.211571
    21  H    0.162569
    22  H    0.177600
    23  H    0.180068
    24  H    0.208276
    25  H    0.188276
    26  H    0.165025
    27  H    0.257715
    28  H    0.151731
    29  H    0.199553
    30  H    0.171867
    31  H    0.254330
 Sum of Mulliken charges =  -0.00000

 Dipole moment (field-independent basis, Debye):
    X=              1.0421    Y=             -0.8568    Z=              0.2317  Tot=              1.3688
 Quadrupole moment (field-independent basis, Debye-Ang):
   XX=            -73.0308   YY=            -82.8726   ZZ=            -77.5608
   XY=             -7.0240   XZ=             -3.6352   YZ=             -2.2092

  Exact polarizability: 170.268   0.835 155.830  -0.597  -0.855 157.397
 Approx polarizability: 146.248  -0.187 140.101   0.366  -0.127 144.537

 ******    1 imaginary frequencies (negative Signs) ******

                      1                      2                      3
                      A                      A                      A
 Frequencies --    -45.3309                49.9999                74.8406
 Red. masses --      4.3929                 3.5601                 3.3860
 Frc consts  --      0.0053                 0.0052                 0.0112
 IR Inten    --      3.7665                 1.4019                 1.5878

                      4                      5                      6
                      A                      A                      A
 Frequencies --    137.3052               172.4751               234.0088
 Red. masses --      3.3126                 3.8214                 2.4344
 Frc consts  --      0.0368                 0.0670                 0.0785
 IR Inten    --      1.3172                 4.8376                 3.1109

                      7                      8                      9
                      A                      A                      A
 Frequencies --    248.2560               283.5878               339.0008
 Red. masses --      2.9442                 2.3087                 2.3968
 Frc consts  --      0.1069                 0.1094                 0.1623
 IR Inten    --      4.6552                 4.1202                 2.5657

                     10                     11                     12
                      A                      A                      A
 Frequencies --    369.4317               419.5527               433.9734
 Red. masses --      1.9533                 2.5584                 2.6920
 Frc consts  --      0.1571                 0.2653                 0.2987
 IR Inten    --      2.2067                 1.7583                10.6743

                     13                     14                     15
                      A                      A                      A
 Frequencies --    436.6417               512.6991               518.5891
 Red. masses --      2.6009                 2.1870                 3.4893
 Frc consts  --      0.2922                 0.3387                 0.5529
 IR Inten    --      5.2533                 3.4100                 8.8166

                     16                     17                     18
                      A                      A                      A
 Frequencies --    527.6550               558.4628               666.7577
 Red. masses --      2.7677                 3.1207                 2.4888
 Frc consts  --      0.4540                 0.5734                 0.6519
 IR Inten    --      6.2149                10.6387                10.5622

                     19                     20                     21
                      A                      A                      A
 Frequencies --    744.5756               835.0402               837.9257
 Red. masses --      2.5234                 1.6466                 3.1867
 Frc consts  --      0.8242                 0.6765                 1.3183
 IR Inten    --      6.7453                 0.5861                14.7002

                     22                     23                     24
                      A                      A                      A
 Frequencies --    852.4169               871.1707               879.2056
 Red. masses --      3.3706                 1.8853                 1.7859
 Frc consts  --      1.4430                 0.8430                 0.8134
 IR Inten    --      2.7949                15.5439                17.3300

                     25                     26                     27
                      A                      A                      A
 Frequencies --    898.9479               902.8299               907.4070
 Red. masses --      2.4951                 2.4875                 2.4533
 Frc consts  --      1.1880                 1.1946                 1.1901
 IR Inten    --     54.4604                11.3640                31.7874

                     28                     29                     30
                      A                      A                      A
 Frequencies --    935.5528               952.7480              1003.4091
 Red. masses --      1.7629                 1.7096                 1.7293
 Frc consts  --      0.9091                 0.9143                 1.0258
 IR Inten    --      9.6841                 5.0858                39.1537

                     31                     32                     33
                      A                      A                      A
 Frequencies --   1033.1652              1041.5536              1057.4216
 Red. masses --      2.1172                 2.2638                 1.9901
 Frc consts  --      1.3315                 1.4469                 1.3111
 IR Inten    --     21.3057                82.9172                 9.2115

                     34                     35                     36
                      A                      A                      A
 Frequencies --   1065.6191              1074.3867              1077.1792
 Red. masses --      1.4685                 2.4621                 2.8841
 Frc consts  --      0.9825                 1.6745                 1.9717
 IR Inten    --     45.5868                25.2781               359.8124

                     37                     38                     39
                      A                      A                      A
 Frequencies --   1105.5541              1143.6944              1155.3987
 Red. masses --      1.5518                 2.1937                 2.7845
 Frc consts  --      1.1175                 1.6906                 2.1900
 IR Inten    --     48.4350               109.5942                84.5504

                     40                     41                     42
                      A                      A                      A
 Frequencies --   1164.3311              1184.0447              1210.4960
 Red. masses --      3.6473                 2.5504                 1.4189
 Frc consts  --      2.9132                 2.1066                 1.2250
 IR Inten    --    122.7961                19.9787                17.0504

                     43                     44                     45
                      A                      A                      A
 Frequencies --   1229.5261              1237.9112              1248.9071
 Red. masses --      1.4405                 1.6063                 1.8212
 Frc consts  --      1.2830                 1.4503                 1.6736
 IR Inten    --     31.5849                87.4880                43.8289

                     46                     47                     48
                      A                      A                      A
 Frequencies --   1285.7769              1302.3503              1318.0631
 Red. masses --      1.2123                 1.1262                 1.1494
 Frc consts  --      1.1808                 1.1255                 1.1766
 IR Inten    --     24.2558                 3.5785                 6.1498

                     49                     50                     51
                      A                      A                      A
 Frequencies --   1337.3378              1355.8288              1366.0993
 Red. masses --      1.2150                 1.3394                 1.3650
 Frc consts  --      1.2803                 1.4507                 1.5008
 IR Inten    --     11.0676                17.7628                 4.0384

                     52                     53                     54
                      A                      A                      A
 Frequencies --   1369.7479              1381.7159              1386.0135
 Red. masses --      1.6329                 1.3505                 1.4871
 Frc consts  --      1.8050                 1.5190                 1.6832
 IR Inten    --      3.5268                41.3476                 4.0402

                     55                     56                     57
                      A                      A                      A
 Frequencies --   1390.9970              1394.9594              1398.9082
 Red. masses --      1.7440                 1.4383                 1.3562
 Frc consts  --      1.9881                 1.6490                 1.5637
 IR Inten    --     20.8858                20.9440                 0.7053

                     58                     59                     60
                      A                      A                      A
 Frequencies --   1409.3129              1421.8017              1432.2120
 Red. masses --      1.3945                 1.3954                 1.3784
 Frc consts  --      1.6318                 1.6619                 1.6659
 IR Inten    --     12.9203                24.4050                 2.3858

                     61                     62                     63
                      A                      A                      A
 Frequencies --   1447.3663              1474.1394              1476.1315
 Red. masses --      1.2563                 1.1072                 1.0870
 Frc consts  --      1.5505                 1.4176                 1.3956
 IR Inten    --      8.8719                 5.2840                 6.3157

                     64                     65                     66
                      A                      A                      A
 Frequencies --   1482.3605              1485.4931              1495.2015
 Red. masses --      1.0881                 1.1190                 1.0953
 Frc consts  --      1.4087                 1.4549                 1.4427
 IR Inten    --      8.3893                15.9903                11.2361

                     67                     68                     69
                      A                      A                      A
 Frequencies --   1495.7194              1509.4911              1510.3608
 Red. masses --      1.0940                 1.0945                 1.1023
 Frc consts  --      1.4420                 1.4693                 1.4815
 IR Inten    --      5.6787                 6.3106                 7.5877

                     70                     71                     72
                      A                      A                      A
 Frequencies --   3012.8571              3021.0869              3045.1705
 Red. masses --      1.0709                 1.0695                 1.0833
 Frc consts  --      5.7271                 5.7512                 5.9184
 IR Inten    --     75.3529                56.2493                53.4893

                     73                     74                     75
                      A                      A                      A
 Frequencies --   3057.5057              3064.0025              3068.6575
 Red. masses --      1.0688                 1.0633                 1.0635
 Frc consts  --      5.8870                 5.8817                 5.9004
 IR Inten    --     37.9078                45.1916                26.1566

                     76                     77                     78
                      A                      A                      A
 Frequencies --   3071.6707              3072.1118              3078.8742
 Red. masses --      1.0650                 1.0613                 1.0604
 Frc consts  --      5.9202                 5.9014                 5.9225
 IR Inten    --     46.8880                29.7216                24.8459

                     79                     80                     81
                      A                      A                      A
 Frequencies --   3094.4842              3113.5968              3117.3797
 Red. masses --      1.0863                 1.0972                 1.1014
 Frc consts  --      6.1290                 6.2671                 6.3066
 IR Inten    --     69.1485                37.1247                48.1663

                     82                     83                     84
                      A                      A                      A
 Frequencies --   3119.1555              3121.1717              3123.4556
 Red. masses --      1.0993                 1.0948                 1.1049
 Frc consts  --      6.3016                 6.2838                 6.3510
 IR Inten    --     52.8039                39.1563                51.0693

                     85                     86                     87
                      A                      A                      A
 Frequencies --   3125.9166              3131.8818              3135.1979
 Red. masses --      1.1025                 1.0962                 1.0993
 Frc consts  --      6.3472                 6.3351                 6.3667
 IR Inten    --     49.8269                45.1419                46.8691

 - Thermochemistry -
 -------------------
 Temperature   298.150 Kelvin.  Pressure   1.00000 Atm.
 Atom     1 has atomic number  6 and mass  12.00000

 Molecular mass:   186.12559 amu.
 Principal axes and moments of inertia in atomic units:
                           1         2         3
     Eigenvalues --  1124.857423843.994064004.08543
           X            0.99987  -0.01503  -0.00588
           Y            0.01469   0.99841  -0.05436
           Z            0.00669   0.05426   0.99850
 This molecule is an asymmetric top.
 Rotational symmetry number  1.
 Warning -- assumption of classical behavior for rotation
           may cause significant error
 Rotational temperatures (Kelvin)      0.07700     0.02253     0.02163
 Rotational constants (GHZ):           1.60442     0.46950     0.45072
    1 imaginary frequencies ignored.
 Zero-point vibrational energy     736512.2 (Joules/Mol)
                                  176.03064 (Kcal/Mol)
 Warning -- explicit consideration of  16 degrees of freedom as
           vibrations may cause significant error
 Vibrational temperatures:     71.94   107.68   197.55   248.15   336.69
          (Kelvin)            357.18   408.02   487.75   531.53   603.64
                              624.39   628.23   737.66   746.13   759.18
                              803.50   959.32  1071.28  1201.44  1205.59
                             1226.44  1253.42  1264.98  1293.39  1298.97
                             1305.56  1346.05  1370.79  1443.68  1486.49
                             1498.56  1521.39  1533.19  1545.80  1549.82
                             1590.65  1645.52  1662.36  1675.21  1703.58
                             1741.63  1769.01  1781.08  1796.90  1849.95
                             1873.79  1896.40  1924.13  1950.74  1965.51
                             1970.76  1987.98  1994.16  2001.33  2007.04
                             2012.72  2027.69  2045.66  2060.63  2082.44
                             2120.96  2123.82  2132.79  2137.29  2151.26
                             2152.01  2171.82  2173.07  4334.83  4346.67
                             4381.32  4399.07  4408.42  4415.11  4419.45
                             4420.08  4429.81  4452.27  4479.77  4485.21
                             4487.77  4490.67  4493.96  4497.50  4506.08
                             4510.85

 Zero-point correction=                           0.280523 (Hartree/Particle)
 Thermal correction to Energy=                    0.291400
 Thermal correction to Enthalpy=                  0.292345
 Thermal correction to Gibbs Free Energy=         0.243561
 Sum of electronic and zero-point Energies=           -617.220905
 Sum of electronic and thermal Energies=              -617.210028
 Sum of electronic and thermal Enthalpies=            -617.209083
 Sum of electronic and thermal Free Energies=         -617.257867

                     E (Thermal)             CV                S
                      KCal/Mol        Cal/Mol-Kelvin    Cal/Mol-Kelvin
 Total                  182.857             44.587            102.673
 Electronic               0.000              0.000              0.000
 Translational            0.889              2.981             41.570
 Rotational               0.889              2.981             31.227
 Vibrational            181.079             38.626             29.876
 Vibration     1          0.595              1.978              4.817
 Vibration     2          0.599              1.966              4.022
 Vibration     3          0.614              1.916              2.841
 Vibration     4          0.626              1.876              2.408
 Vibration     5          0.654              1.789              1.848
 Vibration     6          0.662              1.766              1.743
 Vibration     7          0.682              1.704              1.512
 Vibration     8          0.719              1.598              1.217
 Vibration     9          0.742              1.535              1.082
 Vibration    10          0.782              1.428              0.893
 Vibration    11          0.795              1.396              0.846
 Vibration    12          0.797              1.390              0.837
 Vibration    13          0.868              1.222              0.627
 Vibration    14          0.874              1.209              0.613
 Vibration    15          0.883              1.189              0.592
 Vibration    16          0.914              1.121              0.527

 Optimization completed.
    -- Stationary point found.
 Normal termination of Gaussian 16 at Mon Nov  5 02:16:08 2018.
