 Gaussian 16, Revision A.03,
 Gaussian 16:  ES64L-G16RevA.03 25-Dec-2016

 ----------------------------------------------------------------------
 #M062X/6-311++G(2d,2p) opt=ModRedundant freq=noraman SCRF=(Solvent=Wat
 er)
 ----------------------------------------------------------------------

 ----------------------------
 D_1a_4a_L_PSI.inp_extract_10
 ----------------------------
 Symbolic Z-matrix:
 Charge =  0 Multiplicity = 1

 SCF Done:  E(RM062X) =  -617.492807451     A.U. after   13 cycles
 SCF Done:  E(RM062X) =  -617.494104547     A.U. after   10 cycles
 SCF Done:  E(RM062X) =  -617.494122789     A.U. after   11 cycles
 SCF Done:  E(RM062X) =  -617.494575184     A.U. after   10 cycles
 SCF Done:  E(RM062X) =  -617.494628508     A.U. after    9 cycles
 SCF Done:  E(RM062X) =  -617.494633772     A.U. after    8 cycles
 SCF Done:  E(RM062X) =  -617.494634487     A.U. after    8 cycles
 SCF Done:  E(RM062X) =  -617.494634968     A.U. after    8 cycles
 SCF Done:  E(RM062X) =  -617.494635149     A.U. after    8 cycles
 SCF Done:  E(RM062X) =  -617.494635392     A.U. after    8 cycles
 SCF Done:  E(RM062X) =  -617.494635581     A.U. after    8 cycles
 Optimization completed.
    -- Stationary point found.
 Normal termination of Gaussian 16 at Mon Nov  5 04:41:47 2018.

 ----------------------------------------------------------------------
 #N Geom=AllCheck Guess=TCheck SCRF=Check GenChk RM062X/6-311++G(2d,2p)
  Freq
 ----------------------------------------------------------------------

 Structure from the checkpoint file:  "D_1a_4a_L_PSI.inp_extract_10.chk"
 ----------------------------
 D_1a_4a_L_PSI.inp_extract_10
 ----------------------------
 Charge =  0 Multiplicity = 1

                         Standard orientation:
 ---------------------------------------------------------------------
 Center     Atomic      Atomic             Coordinates (Angstroms)
 Number     Number       Type             X           Y           Z
 ---------------------------------------------------------------------
      1          6           0        3.290013    0.774602   -0.103008
      2          6           0        0.756839   -0.555781   -0.454953
      3          6           0       -2.053630   -1.415825    0.290282
      4          6           0        3.162391   -0.702117    0.266631
      5          6           0       -3.056289    0.665364   -0.666261
      6          8           0       -1.964337    1.410979   -0.154053
      7          6           0        1.935042    1.450506    0.026043
      8          6           0       -1.111209   -0.533979    1.126471
      9          6           0       -2.623794   -0.757184   -0.971108
     10          6           0       -1.556459    0.928838    1.111055
     11          8           0        0.946843    0.805833   -0.775399
     12          8           0        0.278774   -0.721833    0.852449
     13          6           0        2.057677   -1.338393   -0.574837
     14          1           0        3.639820    0.869155   -1.133980
     15          1           0        4.009816    1.282536    0.539726
     16          1           0       -2.894460   -1.669650    0.939716
     17          1           0        4.104689   -1.225769    0.108412
     18          1           0        2.913827   -0.791924    1.326059
     19          1           0        1.615058    1.447685    1.072041
     20          1           0        1.966104    2.481469   -0.320118
     21          1           0       -1.893791   -0.727493   -1.779601
     22          1           0       -3.477446   -1.332804   -1.330686
     23          1           0       -2.391596    1.031991    1.815737
     24          1           0       -0.738074    1.562818    1.446335
     25          1           0        2.348790   -1.332057   -1.627074
     26          1           0        1.873501   -2.371857   -0.284043
     27          1           0        0.027595   -0.915730   -1.177887
     28          1           0       -3.876760    0.669338    0.063083
     29          1           0       -3.392386    1.180345   -1.563813
     30          1           0       -1.546061   -2.352545    0.056650
     31          1           0       -1.182354   -0.861533    2.163594
 ---------------------------------------------------------------------

 SCF Done:  E(RM062X) =  -617.494635581     A.U. after    1 cycles

 The electronic state is 1-A.
 Alpha  occ. eigenvalues --  -19.62851 -19.62610 -19.62415 -10.63143 -10.59049
 Alpha  occ. eigenvalues --  -10.57948 -10.57865 -10.57533 -10.53623 -10.53130
 Alpha  occ. eigenvalues --  -10.52889 -10.52845 -10.52732  -1.19551  -1.16244
 Alpha  occ. eigenvalues --   -1.13001  -0.90597  -0.89467  -0.87412  -0.84387
 Alpha  occ. eigenvalues --   -0.75052  -0.74110  -0.72919  -0.71015  -0.66177
 Alpha  occ. eigenvalues --   -0.62311  -0.59521  -0.58538  -0.56471  -0.55744
 Alpha  occ. eigenvalues --   -0.54277  -0.53437  -0.51772  -0.50852  -0.49349
 Alpha  occ. eigenvalues --   -0.48875  -0.46472  -0.45726  -0.45213  -0.44971
 Alpha  occ. eigenvalues --   -0.43372  -0.42411  -0.42025  -0.40043  -0.39376
 Alpha  occ. eigenvalues --   -0.38291  -0.37271  -0.35827  -0.35133  -0.32902
 Alpha  occ. eigenvalues --   -0.31353
 Alpha virt. eigenvalues --   -0.00189   0.00710   0.00879   0.01177   0.02326
 Alpha virt. eigenvalues --    0.02536   0.02644   0.03307   0.03469   0.04670
 Alpha virt. eigenvalues --    0.04794   0.05080   0.05542   0.05633   0.07302

 Mulliken charges:
               1
     1  C   -0.425239
     2  C   -0.257802
     3  C   -0.581512
     4  C   -0.274131
     5  C   -0.196866
     6  O   -0.233279
     7  C   -0.042865
     8  C    0.262697
     9  C   -0.198963
    10  C   -0.514495
    11  O   -0.226925
    12  O   -0.298079
    13  C   -0.407702
    14  H    0.159116
    15  H    0.171991
    16  H    0.220062
    17  H    0.186775
    18  H    0.176532
    19  H    0.121743
    20  H    0.207934
    21  H    0.166108
    22  H    0.193898
    23  H    0.179494
    24  H    0.198315
    25  H    0.191682
    26  H    0.179641
    27  H    0.265233
    28  H    0.151692
    29  H    0.196046
    30  H    0.185753
    31  H    0.243145
 Sum of Mulliken charges =   0.00000

 Dipole moment (field-independent basis, Debye):
    X=             -0.8590    Y=             -2.1944    Z=              0.9628  Tot=              2.5457
 Quadrupole moment (field-independent basis, Debye-Ang):
   XX=            -68.9440   YY=            -82.1684   ZZ=            -79.2383
   XY=              4.8232   XZ=             -1.1703   YZ=              4.1508

  Exact polarizability: 170.758   2.459 158.412   1.409   1.633 154.358
 Approx polarizability: 145.620   2.403 141.493   0.422  -0.167 144.635

 ******    1 imaginary frequencies (negative Signs) ******

                      1                      2                      3
                      A                      A                      A
 Frequencies --    -41.2851                62.3477                99.8509
 Red. masses --      3.7896                 4.6529                 3.3807
 Frc consts  --      0.0038                 0.0107                 0.0199
 IR Inten    --      0.2626                 3.2042                 3.0886

                      4                      5                      6
                      A                      A                      A
 Frequencies --    132.1172               178.5618               204.7050
 Red. masses --      3.5429                 3.3959                 2.6968
 Frc consts  --      0.0364                 0.0638                 0.0666
 IR Inten    --      3.6409                 0.9702                 0.5197

                      7                      8                      9
                      A                      A                      A
 Frequencies --    239.0958               304.4633               324.3524
 Red. masses --      2.5224                 2.1119                 2.2043
 Frc consts  --      0.0850                 0.1153                 0.1366
 IR Inten    --     11.9186                 5.1376                 3.0398

                     10                     11                     12
                      A                      A                      A
 Frequencies --    387.9516               411.5545               424.7410
 Red. masses --      2.1439                 2.7964                 2.5609
 Frc consts  --      0.1901                 0.2791                 0.2722
 IR Inten    --     10.2287                 0.5642                 4.6196

                     13                     14                     15
                      A                      A                      A
 Frequencies --    441.8165               484.6840               512.4219
 Red. masses --      2.8096                 3.8487                 2.5362
 Frc consts  --      0.3231                 0.5327                 0.3924
 IR Inten    --     10.7346                10.2619                 4.2022

                     16                     17                     18
                      A                      A                      A
 Frequencies --    533.7752               577.6028               670.4126
 Red. masses --      2.0522                 3.1447                 2.9591
 Frc consts  --      0.3445                 0.6181                 0.7836
 IR Inten    --      9.4859                10.6242                 2.4943

                     19                     20                     21
                      A                      A                      A
 Frequencies --    753.0992               787.0920               835.7570
 Red. masses --      2.3424                 3.1424                 1.5557
 Frc consts  --      0.7827                 1.1470                 0.6402
 IR Inten    --      6.8493                 0.7332                 6.7401

                     22                     23                     24
                      A                      A                      A
 Frequencies --    844.5602               848.3159               881.3055
 Red. masses --      2.6089                 2.0831                 2.5128
 Frc consts  --      1.0964                 0.8832                 1.1499
 IR Inten    --      5.3593                 7.4918                10.6735

                     25                     26                     27
                      A                      A                      A
 Frequencies --    895.9443               908.1879               909.3872
 Red. masses --      2.4379                 2.3741                 2.6457
 Frc consts  --      1.1530                 1.1537                 1.2891
 IR Inten    --     27.7343                18.5249                39.5380

                     28                     29                     30
                      A                      A                      A
 Frequencies --    926.6319               972.5191               982.8443
 Red. masses --      1.8244                 1.8189                 1.9575
 Frc consts  --      0.9230                 1.0136                 1.1141
 IR Inten    --     25.5944                14.6414                49.4611

                     31                     32                     33
                      A                      A                      A
 Frequencies --   1033.9882              1042.3954              1061.8962
 Red. masses --      2.2120                 1.9756                 1.9930
 Frc consts  --      1.3933                 1.2648                 1.3241
 IR Inten    --     13.8618                 4.8660               198.2335

                     34                     35                     36
                      A                      A                      A
 Frequencies --   1067.8759              1069.8022              1075.5681
 Red. masses --      1.7073                 1.9309                 2.4013
 Frc consts  --      1.1471                 1.3020                 1.6367
 IR Inten    --     10.4660                64.0630               156.3629

                     37                     38                     39
                      A                      A                      A
 Frequencies --   1110.1036              1147.4421              1159.8626
 Red. masses --      1.5770                 3.0320                 2.3484
 Frc consts  --      1.1450                 2.3520                 1.8614
 IR Inten    --     27.6441               122.6972                17.3520

                     40                     41                     42
                      A                      A                      A
 Frequencies --   1168.5484              1195.2343              1209.2754
 Red. masses --      3.0658                 3.1890                 1.3977
 Frc consts  --      2.4665                 2.6841                 1.2042
 IR Inten    --     93.2622               141.6843                13.6781

                     43                     44                     45
                      A                      A                      A
 Frequencies --   1232.6125              1235.9789              1247.4981
 Red. masses --      1.4924                 1.4232                 1.9009
 Frc consts  --      1.3359                 1.2810                 1.7429
 IR Inten    --     40.4834                41.9294                59.0111

                     46                     47                     48
                      A                      A                      A
 Frequencies --   1286.9379              1319.9531              1322.8356
 Red. masses --      1.2145                 1.1509                 1.2134
 Frc consts  --      1.1852                 1.1814                 1.2510
 IR Inten    --     16.8205                 6.9753                28.2266

                     49                     50                     51
                      A                      A                      A
 Frequencies --   1345.4040              1356.1779              1358.3360
 Red. masses --      1.4031                 1.3723                 1.3594
 Frc consts  --      1.4964                 1.4871                 1.4778
 IR Inten    --     40.6555                 4.0922                 0.7378

                     52                     53                     54
                      A                      A                      A
 Frequencies --   1372.6505              1385.3868              1388.8362
 Red. masses --      1.3010                 1.4934                 1.5724
 Frc consts  --      1.4442                 1.6888                 1.7869
 IR Inten    --      9.8172                 3.5689                11.8630

                     55                     56                     57
                      A                      A                      A
 Frequencies --   1394.2957              1394.9364              1402.6184
 Red. masses --      1.4340                 1.4015                 1.3596
 Frc consts  --      1.6426                 1.6067                 1.5759
 IR Inten    --      3.6236                 3.9314                 6.7848

                     58                     59                     60
                      A                      A                      A
 Frequencies --   1411.5565              1428.7636              1430.0813
 Red. masses --      1.3365                 1.3026                 1.3341
 Frc consts  --      1.5690                 1.5666                 1.6075
 IR Inten    --     19.4311                 7.6557                 7.3992

                     61                     62                     63
                      A                      A                      A
 Frequencies --   1438.7714              1475.2118              1476.6162
 Red. masses --      1.2524                 1.1023                 1.0922
 Frc consts  --      1.5275                 1.4133                 1.4031
 IR Inten    --     20.6593                 7.3868                11.6030

                     64                     65                     66
                      A                      A                      A
 Frequencies --   1482.0591              1489.1114              1493.6867
 Red. masses --      1.0862                 1.0871                 1.1051
 Frc consts  --      1.4057                 1.4203                 1.4527
 IR Inten    --      8.0584                 5.5989                15.3672

                     67                     68                     69
                      A                      A                      A
 Frequencies --   1495.7492              1508.2611              1511.9671
 Red. masses --      1.1022                 1.0943                 1.1025
 Frc consts  --      1.4529                 1.4667                 1.4850
 IR Inten    --      8.5490                 3.9728                 7.3203

                     70                     71                     72
                      A                      A                      A
 Frequencies --   3011.2695              3012.9959              3053.1543
 Red. masses --      1.0706                 1.0707                 1.0687
 Frc consts  --      5.7197                 5.7266                 5.8694
 IR Inten    --     37.4304               118.8974                47.2001

                     73                     74                     75
                      A                      A                      A
 Frequencies --   3062.3361              3063.9295              3071.1114
 Red. masses --      1.0626                 1.0650                 1.0630
 Frc consts  --      5.8713                 5.8903                 5.9072
 IR Inten    --     45.5764                17.8931                30.0004

                     76                     77                     78
                      A                      A                      A
 Frequencies --   3076.9137              3082.2797              3096.4000
 Red. masses --      1.0623                 1.0616                 1.0851
 Frc consts  --      5.9256                 5.9422                 6.1296
 IR Inten    --     34.9907                16.9673                53.9574

                     79                     80                     81
                      A                      A                      A
 Frequencies --   3109.1624              3111.9751              3117.8496
 Red. masses --      1.0997                 1.0978                 1.1023
 Frc consts  --      6.2637                 6.2641                 6.3135
 IR Inten    --     29.5871                53.0101                65.7646

                     82                     83                     84
                      A                      A                      A
 Frequencies --   3121.3926              3129.2502              3129.5016
 Red. masses --      1.0997                 1.0936                 1.1026
 Frc consts  --      6.3131                 6.3095                 6.3625
 IR Inten    --     75.2622                29.0967                52.2377

                     85                     86                     87
                      A                      A                      A
 Frequencies --   3131.9663              3137.8162              3140.1665
 Red. masses --      1.0981                 1.0931                 1.0888
 Frc consts  --      6.3464                 6.3413                 6.3254
 IR Inten    --     40.0078                25.5973                58.3817

 - Thermochemistry -
 -------------------
 Temperature   298.150 Kelvin.  Pressure   1.00000 Atm.
 Atom     1 has atomic number  6 and mass  12.00000

 Molecular mass:   186.12559 amu.
 Principal axes and moments of inertia in atomic units:
                           1         2         3
     Eigenvalues --  1093.124353409.171373761.18820
           X            0.99996   0.00882   0.00218
           Y           -0.00891   0.99867   0.05070
           Z           -0.00173  -0.05072   0.99871
 This molecule is an asymmetric top.
 Rotational symmetry number  1.
 Warning -- assumption of classical behavior for rotation
           may cause significant error
 Rotational temperatures (Kelvin)      0.07924     0.02541     0.02303
 Rotational constants (GHZ):           1.65099     0.52938     0.47983
    1 imaginary frequencies ignored.
 Zero-point vibrational energy     737042.3 (Joules/Mol)
                                  176.15734 (Kcal/Mol)
 Warning -- explicit consideration of  16 degrees of freedom as
           vibrations may cause significant error
 Vibrational temperatures:     89.70   143.66   190.09   256.91   294.52
          (Kelvin)            344.01   438.05   466.67   558.18   592.14
                              611.11   635.68   697.35   737.26   767.98
                              831.04   964.57  1083.54  1132.45  1202.47
                             1215.13  1220.54  1268.00  1289.06  1306.68
                             1308.41  1333.22  1399.24  1414.09  1487.68
                             1499.77  1527.83  1536.44  1539.21  1547.50
                             1597.19  1650.91  1668.78  1681.28  1719.68
                             1739.88  1773.45  1778.30  1794.87  1851.62
                             1899.12  1903.27  1935.74  1951.24  1954.34
                             1974.94  1993.26  1998.23  2006.08  2007.00
                             2018.06  2030.91  2055.67  2057.57  2070.07
                             2122.50  2124.52  2132.35  2142.50  2149.08
                             2152.05  2170.05  2175.38  4332.55  4335.03
                             4392.81  4406.02  4408.31  4418.64  4426.99
                             4434.71  4455.03  4473.39  4477.44  4485.89
                             4490.99  4502.29  4502.65  4506.20  4514.62
                             4518.00

 Zero-point correction=                           0.280725 (Hartree/Particle)
 Thermal correction to Energy=                    0.291589
 Thermal correction to Enthalpy=                  0.292533
 Thermal correction to Gibbs Free Energy=         0.244179
 Sum of electronic and zero-point Energies=           -617.213911
 Sum of electronic and thermal Energies=              -617.203047
 Sum of electronic and thermal Enthalpies=            -617.202103
 Sum of electronic and thermal Free Energies=         -617.250456

                     E (Thermal)             CV                S
                      KCal/Mol        Cal/Mol-Kelvin    Cal/Mol-Kelvin
 Total                  182.975             44.686            101.769
 Electronic               0.000              0.000              0.000
 Translational            0.889              2.981             41.570
 Rotational               0.889              2.981             31.017
 Vibrational            181.197             38.725             29.183
 Vibration     1          0.597              1.972              4.381
 Vibration     2          0.604              1.949              3.457
 Vibration     3          0.612              1.921              2.915
 Vibration     4          0.629              1.869              2.343
 Vibration     5          0.640              1.833              2.090
 Vibration     6          0.657              1.781              1.810
 Vibration     7          0.695              1.665              1.392
 Vibration     8          0.709              1.627              1.288
 Vibration     9          0.756              1.496              1.008
 Vibration    10          0.776              1.445              0.921
 Vibration    11          0.787              1.416              0.876
 Vibration    12          0.802              1.379              0.821
 Vibration    13          0.841              1.284              0.698
 Vibration    14          0.868              1.222              0.628
 Vibration    15          0.889              1.175              0.579
 Vibration    16          0.934              1.080              0.490

 Optimization completed.
    -- Stationary point found.
 Normal termination of Gaussian 16 at Mon Nov  5 05:36:53 2018.
