 Gaussian 16, Revision A.03,
 Gaussian 16:  ES64L-G16RevA.03 25-Dec-2016

 ----------------------------------------------------------------------
 #M062X/6-311++G(2d,2p) opt=ModRedundant freq=noraman SCRF=(Solvent=Wat
 er)
 ----------------------------------------------------------------------

 ----------------------------
 D_1a_4a_L_PSI.inp_extract_16
 ----------------------------
 Symbolic Z-matrix:
 Charge =  0 Multiplicity = 1

 SCF Done:  E(RM062X) =  -617.500325493     A.U. after   13 cycles
 SCF Done:  E(RM062X) =  -617.502095197     A.U. after   11 cycles
 SCF Done:  E(RM062X) =  -617.502411812     A.U. after   10 cycles
 SCF Done:  E(RM062X) =  -617.502628830     A.U. after   10 cycles
 SCF Done:  E(RM062X) =  -617.502649169     A.U. after    9 cycles
 SCF Done:  E(RM062X) =  -617.502650026     A.U. after    8 cycles
 SCF Done:  E(RM062X) =  -617.502650226     A.U. after    7 cycles
 Optimization completed.
    -- Stationary point found.
 Normal termination of Gaussian 16 at Mon Nov  5 04:25:26 2018.

 ----------------------------------------------------------------------
 #N Geom=AllCheck Guess=TCheck SCRF=Check GenChk RM062X/6-311++G(2d,2p)
  Freq
 ----------------------------------------------------------------------

 Structure from the checkpoint file:  "D_1a_4a_L_PSI.inp_extract_16.chk"
 ----------------------------
 D_1a_4a_L_PSI.inp_extract_16
 ----------------------------
 Charge =  0 Multiplicity = 1

                         Standard orientation:
 ---------------------------------------------------------------------
 Center     Atomic      Atomic             Coordinates (Angstroms)
 Number     Number       Type             X           Y           Z
 ---------------------------------------------------------------------
      1          6           0       -3.519422   -0.039043    0.281340
      2          6           0       -0.806995   -0.020241   -0.682847
      3          6           0        2.062056    0.533703    1.444798
      4          6           0       -2.842155    1.297419   -0.018074
      5          6           0        3.292855    0.160190   -0.691640
      6          8           0        2.229825   -0.659387   -1.161274
      7          6           0       -2.470560   -1.076491    0.645546
      8          6           0        0.974216   -0.402323    0.925986
      9          6           0        2.784325    1.210282    0.281635
     10          6           0        1.587499   -1.347394   -0.103383
     11          8           0       -1.496608   -1.219680   -0.388474
     12          8           0       -0.073288    0.431244    0.423761
     13          6           0       -1.762487    1.093672   -1.079842
     14          1           0       -4.067238   -0.382102   -0.599773
     15          1           0       -4.233657    0.054976    1.099954
     16          1           0        2.772591   -0.054534    2.030344
     17          1           0       -3.570057    2.033006   -0.358842
     18          1           0       -2.387793    1.687142    0.894848
     19          1           0       -1.971519   -0.796922    1.578096
     20          1           0       -2.909843   -2.063371    0.773369
     21          1           0        2.098585    1.877947   -0.242127
     22          1           0        3.620512    1.808471    0.643987
     23          1           0        2.311153   -1.977806    0.427193
     24          1           0        0.838386   -1.994840   -0.551343
     25          1           0       -2.224237    0.806655   -2.026349
     26          1           0       -1.188579    2.003865   -1.250556
     27          1           0       -0.140260   -0.273823   -1.506098
     28          1           0        4.045791   -0.472656   -0.205089
     29          1           0        3.741570    0.613604   -1.572924
     30          1           0        1.616636    1.269860    2.113881
     31          1           0        0.572529   -1.015535    1.738208
 ---------------------------------------------------------------------

 SCF Done:  E(RM062X) =  -617.502650226     A.U. after    1 cycles

 The electronic state is 1-A.
 Alpha  occ. eigenvalues --  -19.63017 -19.62928 -19.62787 -10.63103 -10.58881
 Alpha  occ. eigenvalues --  -10.58092 -10.57943 -10.57697 -10.53216 -10.52955
 Alpha  occ. eigenvalues --  -10.52900 -10.52899 -10.52801  -1.19874  -1.16489
 Alpha  occ. eigenvalues --   -1.12974  -0.91011  -0.89645  -0.86862  -0.84784
 Alpha  occ. eigenvalues --   -0.74908  -0.74061  -0.72806  -0.70839  -0.66052
 Alpha  occ. eigenvalues --   -0.62545  -0.59795  -0.59040  -0.57350  -0.55025
 Alpha  occ. eigenvalues --   -0.54270  -0.53105  -0.52395  -0.49910  -0.49767
 Alpha  occ. eigenvalues --   -0.48415  -0.47024  -0.45806  -0.45591  -0.45353
 Alpha  occ. eigenvalues --   -0.43564  -0.43027  -0.40436  -0.40211  -0.39397
 Alpha  occ. eigenvalues --   -0.38311  -0.37516  -0.36578  -0.34518  -0.33074
 Alpha  occ. eigenvalues --   -0.32109
 Alpha virt. eigenvalues --   -0.00168   0.00835   0.00890   0.01055   0.02240
 Alpha virt. eigenvalues --    0.02460   0.02728   0.03317   0.03465   0.04609
 Alpha virt. eigenvalues --    0.04716   0.04840   0.05398   0.05946   0.07031

 Mulliken charges:
               1
     1  C   -0.402929
     2  C   -0.071715
     3  C   -0.532029
     4  C   -0.286818
     5  C   -0.208851
     6  O   -0.283316
     7  C   -0.100590
     8  C    0.124394
     9  C   -0.279767
    10  C   -0.333253
    11  O   -0.284737
    12  O   -0.272731
    13  C   -0.480893
    14  H    0.163387
    15  H    0.172770
    16  H    0.211033
    17  H    0.184410
    18  H    0.173600
    19  H    0.132763
    20  H    0.202121
    21  H    0.154654
    22  H    0.188953
    23  H    0.191257
    24  H    0.241605
    25  H    0.192683
    26  H    0.178225
    27  H    0.269488
    28  H    0.158105
    29  H    0.199045
    30  H    0.169563
    31  H    0.229571
 Sum of Mulliken charges =  -0.00000

 Dipole moment (field-independent basis, Debye):
    X=              0.4060    Y=              0.7805    Z=              2.1282  Tot=              2.3029
 Quadrupole moment (field-independent basis, Debye-Ang):
   XX=            -69.9578   YY=            -81.1380   ZZ=            -80.8984
   XY=              0.2584   XZ=              2.6915   YZ=             -4.7629

  Exact polarizability: 171.878   2.489 157.179  -1.029  -3.668 154.695
 Approx polarizability: 145.466   1.834 142.577   0.380  -1.455 143.527

                      1                      2                      3
                      A                      A                      A
 Frequencies --     38.6468                66.0824               103.6765
 Red. masses --      3.6575                 3.7515                 3.4922
 Frc consts  --      0.0032                 0.0097                 0.0221
 IR Inten    --      1.5023                 2.3845                 2.2673

                      4                      5                      6
                      A                      A                      A
 Frequencies --    132.1896               189.8717               225.9872
 Red. masses --      4.3765                 3.0503                 3.1874
 Frc consts  --      0.0451                 0.0648                 0.0959
 IR Inten    --      0.5075                 6.6905                11.0569

                      7                      8                      9
                      A                      A                      A
 Frequencies --    263.0777               285.6066               350.0324
 Red. masses --      2.8707                 2.1849                 2.5566
 Frc consts  --      0.1171                 0.1050                 0.1846
 IR Inten    --      3.1182                 6.1579                 5.9953

                     10                     11                     12
                      A                      A                      A
 Frequencies --    371.6134               398.2949               438.9073
 Red. masses --      2.0117                 2.2118                 3.6893
 Frc consts  --      0.1637                 0.2067                 0.4187
 IR Inten    --      5.9401                 1.8367                 6.0366

                     13                     14                     15
                      A                      A                      A
 Frequencies --    450.9155               490.1166               520.5967
 Red. masses --      2.1703                 4.3882                 2.4656
 Frc consts  --      0.2600                 0.6211                 0.3937
 IR Inten    --      5.7196                 9.2594                 3.1802

                     16                     17                     18
                      A                      A                      A
 Frequencies --    538.2851               597.7402               700.5401
 Red. masses --      1.8125                 2.7469                 3.3241
 Frc consts  --      0.3094                 0.5783                 0.9612
 IR Inten    --      3.3525                 7.6164                 3.4589

                     19                     20                     21
                      A                      A                      A
 Frequencies --    749.9756               820.2143               836.2208
 Red. masses --      2.5299                 2.4856                 1.9316
 Frc consts  --      0.8384                 0.9852                 0.7958
 IR Inten    --     12.1057                10.9375                 2.8334

                     22                     23                     24
                      A                      A                      A
 Frequencies --    840.2469               866.4013               877.1254
 Red. masses --      3.5359                 2.2065                 1.6663
 Frc consts  --      1.4709                 0.9759                 0.7553
 IR Inten    --     10.4908                 9.8713                15.8624

                     25                     26                     27
                      A                      A                      A
 Frequencies --    893.9863               903.2225               919.3656
 Red. masses --      2.5288                 2.6168                 2.2888
 Frc consts  --      1.1908                 1.2578                 1.1398
 IR Inten    --     33.5091                23.4391                34.3501

                     28                     29                     30
                      A                      A                      A
 Frequencies --    925.9955               947.3891               993.5747
 Red. masses --      1.8668                 1.6918                 1.8226
 Frc consts  --      0.9431                 0.8946                 1.0601
 IR Inten    --      5.6692                28.5359                27.7821

                     31                     32                     33
                      A                      A                      A
 Frequencies --   1038.2147              1041.0077              1055.9245
 Red. masses --      2.2484                 2.1167                 2.1104
 Frc consts  --      1.4279                 1.3515                 1.3864
 IR Inten    --     49.8080                 6.5147               177.9293

                     34                     35                     36
                      A                      A                      A
 Frequencies --   1057.9675              1068.5407              1079.6840
 Red. masses --      1.8427                 1.6296                 2.4327
 Frc consts  --      1.2152                 1.0962                 1.6709
 IR Inten    --     19.5648                22.4648               137.2061

                     37                     38                     39
                      A                      A                      A
 Frequencies --   1100.1991              1149.5642              1152.0019
 Red. masses --      1.5504                 2.8353                 2.5450
 Frc consts  --      1.1057                 2.2076                 1.9900
 IR Inten    --     22.4258                 9.4754               158.7443

                     40                     41                     42
                      A                      A                      A
 Frequencies --   1172.0729              1192.0212              1210.3412
 Red. masses --      2.4223                 3.6597                 1.3985
 Frc consts  --      1.9606                 3.0638                 1.2071
 IR Inten    --     61.3919               175.9975                23.0378

                     43                     44                     45
                      A                      A                      A
 Frequencies --   1228.3382              1233.2212              1244.3965
 Red. masses --      1.3918                 1.5803                 1.8172
 Frc consts  --      1.2372                 1.4160                 1.6580
 IR Inten    --     67.9039                18.6920                62.3865

                     46                     47                     48
                      A                      A                      A
 Frequencies --   1287.4528              1301.5602              1319.6908
 Red. masses --      1.2137                 1.1410                 1.1529
 Frc consts  --      1.1853                 1.1389                 1.1830
 IR Inten    --     18.3206                43.8834                 8.2543

                     49                     50                     51
                      A                      A                      A
 Frequencies --   1337.1991              1358.7658              1363.0581
 Red. masses --      1.2393                 1.3772                 1.3499
 Frc consts  --      1.3056                 1.4981                 1.4777
 IR Inten    --     21.5956                18.9336                 0.6343

                     52                     53                     54
                      A                      A                      A
 Frequencies --   1367.8810              1383.2218              1385.2444
 Red. masses --      1.4849                 1.3842                 1.4535
 Frc consts  --      1.6370                 1.5604                 1.6433
 IR Inten    --      8.7918                 7.0099                 0.4001

                     55                     56                     57
                      A                      A                      A
 Frequencies --   1392.7472              1395.7824              1403.5986
 Red. masses --      1.4470                 1.7644                 1.4224
 Frc consts  --      1.6537                 2.0253                 1.6511
 IR Inten    --     12.2899                14.8444                 4.7590

                     58                     59                     60
                      A                      A                      A
 Frequencies --   1406.6816              1420.2214              1432.4745
 Red. masses --      1.2995                 1.3596                 1.3360
 Frc consts  --      1.5150                 1.6157                 1.6152
 IR Inten    --      1.8023                 0.2285                11.6747

                     61                     62                     63
                      A                      A                      A
 Frequencies --   1440.6335              1474.2678              1476.2879
 Red. masses --      1.3642                 1.1068                 1.0870
 Frc consts  --      1.6681                 1.4174                 1.3959
 IR Inten    --     16.9245                 4.9645                 6.5199

                     64                     65                     66
                      A                      A                      A
 Frequencies --   1481.5610              1486.6508              1495.7677
 Red. masses --      1.0876                 1.1130                 1.1094
 Frc consts  --      1.4066                 1.4493                 1.4624
 IR Inten    --      7.7220                13.2086                13.6027

                     67                     68                     69
                      A                      A                      A
 Frequencies --   1504.5772              1508.1349              1518.4180
 Red. masses --      1.0826                 1.0940                 1.0954
 Frc consts  --      1.4439                 1.4661                 1.4880
 IR Inten    --      2.8194                 2.7778                19.4781

                     70                     71                     72
                      A                      A                      A
 Frequencies --   3014.5634              3027.4233              3049.0354
 Red. masses --      1.0706                 1.0721                 1.0785
 Frc consts  --      5.7322                 5.7892                 5.9076
 IR Inten    --     80.9804                42.0311               110.2694

                     73                     74                     75
                      A                      A                      A
 Frequencies --   3052.0028              3062.9482              3070.8443
 Red. masses --      1.0727                 1.0629                 1.0655
 Frc consts  --      5.8873                 5.8750                 5.9197
 IR Inten    --      9.0986                42.6977                62.8665

                     76                     77                     78
                      A                      A                      A
 Frequencies --   3073.0099              3077.4971              3078.0106
 Red. masses --      1.0625                 1.0612                 1.0619
 Frc consts  --      5.9115                 5.9214                 5.9278
 IR Inten    --     31.3071                31.4958                18.6615

                     79                     80                     81
                      A                      A                      A
 Frequencies --   3112.4369              3115.6128              3115.9235
 Red. masses --      1.0964                 1.0959                 1.0929
 Frc consts  --      6.2580                 6.2678                 6.2519
 IR Inten    --     59.4311                15.1817                28.9876

                     82                     83                     84
                      A                      A                      A
 Frequencies --   3118.7069              3123.6968              3128.8826
 Red. masses --      1.1016                 1.1026                 1.1035
 Frc consts  --      6.3127                 6.3385                 6.3652
 IR Inten    --     75.0424                52.7510                45.3800

                     85                     86                     87
                      A                      A                      A
 Frequencies --   3130.3345              3134.1832              3154.1075
 Red. masses --      1.0961                 1.0981                 1.0926
 Frc consts  --      6.3282                 6.3552                 6.4041
 IR Inten    --     46.3143                47.9542                18.2585

 - Thermochemistry -
 -------------------
 Temperature   298.150 Kelvin.  Pressure   1.00000 Atm.
 Atom     1 has atomic number  6 and mass  12.00000

 Molecular mass:   186.12559 amu.
 Principal axes and moments of inertia in atomic units:
                           1         2         3
     Eigenvalues --  1019.498753768.316613910.64717
           X            0.99999  -0.00026   0.00424
           Y            0.00074   0.99347  -0.11407
           Z           -0.00419   0.11407   0.99346
 This molecule is an asymmetric top.
 Rotational symmetry number  1.
 Warning -- assumption of classical behavior for rotation
           may cause significant error
 Rotational temperatures (Kelvin)      0.08496     0.02298     0.02215
 Rotational constants (GHZ):           1.77022     0.47893     0.46149
 Zero-point vibrational energy     737740.0 (Joules/Mol)
                                  176.32409 (Kcal/Mol)
 Warning -- explicit consideration of  17 degrees of freedom as
           vibrations may cause significant error
 Vibrational temperatures:     55.60    95.08   149.17   190.19   273.18
          (Kelvin)            325.15   378.51   410.92   503.62   534.67
                              573.06   631.49   648.77   705.17   749.02
                              774.47   860.01  1007.92  1079.05  1180.11
                             1203.14  1208.93  1246.56  1261.99  1286.25
                             1299.54  1322.76  1332.30  1363.08  1429.53
                             1493.76  1497.78  1519.24  1522.18  1537.39
                             1553.42  1582.94  1653.97  1657.47  1686.35
                             1715.05  1741.41  1767.30  1774.33  1790.41
                             1852.36  1872.65  1898.74  1923.93  1954.96
                             1961.14  1968.08  1990.15  1993.06  2003.85
                             2008.22  2019.47  2023.90  2043.38  2061.01
                             2072.75  2121.14  2124.05  2131.64  2138.96
                             2152.08  2164.75  2169.87  2184.66  4337.28
                             4355.79  4386.88  4391.15  4406.90  4418.26
                             4421.38  4427.83  4428.57  4478.10  4482.67
                             4483.12  4487.12  4494.30  4501.76  4503.85
                             4509.39  4538.06

 Zero-point correction=                           0.280990 (Hartree/Particle)
 Thermal correction to Energy=                    0.292576
 Thermal correction to Enthalpy=                  0.293520
 Thermal correction to Gibbs Free Energy=         0.242962
 Sum of electronic and zero-point Energies=           -617.221660
 Sum of electronic and thermal Energies=              -617.210074
 Sum of electronic and thermal Enthalpies=            -617.209130
 Sum of electronic and thermal Free Energies=         -617.259688

                     E (Thermal)             CV                S
                      KCal/Mol        Cal/Mol-Kelvin    Cal/Mol-Kelvin
 Total                  183.594             46.422            106.408
 Electronic               0.000              0.000              0.000
 Translational            0.889              2.981             41.570
 Rotational               0.889              2.981             31.086
 Vibrational            181.817             40.461             33.753
 Vibration     1          0.594              1.981              5.327
 Vibration     2          0.597              1.970              4.267
 Vibration     3          0.605              1.946              3.384
 Vibration     4          0.612              1.921              2.914
 Vibration     5          0.633              1.854              2.229
 Vibration     6          0.650              1.801              1.911
 Vibration     7          0.670              1.741              1.641
 Vibration     8          0.683              1.700              1.500
 Vibration     9          0.727              1.575              1.166
 Vibration    10          0.743              1.530              1.073
 Vibration    11          0.765              1.474              0.969
 Vibration    12          0.799              1.385              0.830
 Vibration    13          0.810              1.359              0.793
 Vibration    14          0.846              1.272              0.683
 Vibration    15          0.876              1.204              0.609
 Vibration    16          0.893              1.165              0.569
 Vibration    17          0.956              1.037              0.454

 Optimization completed.
    -- Stationary point found.
 Normal termination of Gaussian 16 at Mon Nov  5 05:31:25 2018.
