 Gaussian 16, Revision A.03,
 Gaussian 16:  ES64L-G16RevA.03 25-Dec-2016

 ----------------------------------------------------------------------
 #M062X/6-311++G(2d,2p) opt=ModRedundant freq=noraman SCRF=(Solvent=Wat
 er)
 ----------------------------------------------------------------------

 ----------------------------
 D_1a_4a_L_PSI.inp_extract_12
 ----------------------------
 Symbolic Z-matrix:
 Charge =  0 Multiplicity = 1

 SCF Done:  E(RM062X) =  -617.495149012     A.U. after   13 cycles
 SCF Done:  E(RM062X) =  -617.496246485     A.U. after   12 cycles
 SCF Done:  E(RM062X) =  -617.497193924     A.U. after   10 cycles
 SCF Done:  E(RM062X) =  -617.497401373     A.U. after   10 cycles
 SCF Done:  E(RM062X) =  -617.497445949     A.U. after    8 cycles
 SCF Done:  E(RM062X) =  -617.497448054     A.U. after    8 cycles
 SCF Done:  E(RM062X) =  -617.497448292     A.U. after    7 cycles
 Optimization completed.
    -- Stationary point found.
 Normal termination of Gaussian 16 at Mon Nov  5 04:25:51 2018.

 ----------------------------------------------------------------------
 #N Geom=AllCheck Guess=TCheck SCRF=Check GenChk RM062X/6-311++G(2d,2p)
  Freq
 ----------------------------------------------------------------------

 Structure from the checkpoint file:  "D_1a_4a_L_PSI.inp_extract_12.chk"
 ----------------------------
 D_1a_4a_L_PSI.inp_extract_12
 ----------------------------
 Charge =  0 Multiplicity = 1

                         Standard orientation:
 ---------------------------------------------------------------------
 Center     Atomic      Atomic             Coordinates (Angstroms)
 Number     Number       Type             X           Y           Z
 ---------------------------------------------------------------------
      1          6           0       -3.424181   -0.408517   -0.008071
      2          6           0       -0.670951    0.292483   -0.489663
      3          6           0        2.183566    1.197651    0.820941
      4          6           0       -2.994639    1.054686    0.086444
      5          6           0        3.010885   -0.427356   -0.882856
      6          8           0        1.894244   -1.264853   -0.615782
      7          6           0       -2.239644   -1.313148    0.290681
      8          6           0        1.105194    0.181207    1.207199
      9          6           0        2.681917    1.033535   -0.615437
     10          6           0        1.513427   -1.214702    0.748669
     11          8           0       -1.140379   -1.038723   -0.575915
     12          8           0       -0.202575    0.591390    0.803132
     13          6           0       -1.779228    1.284729   -0.810493
     14          1           0       -3.788272   -0.621681   -1.016181
     15          1           0       -4.232800   -0.628859    0.689665
     16          1           0        3.027027    1.043810    1.499578
     17          1           0       -3.808754    1.717368   -0.205558
     18          1           0       -2.735979    1.292365    1.120059
     19          1           0       -1.921840   -1.189496    1.330177
     20          1           0       -2.486127   -2.360579    0.129767
     21          1           0        1.935497    1.377672   -1.331810
     22          1           0        3.575150    1.638737   -0.773487
     23          1           0        2.357253   -1.534116    1.372800
     24          1           0        0.693243   -1.915747    0.875241
     25          1           0       -2.059961    1.138273   -1.855302
     26          1           0       -1.387785    2.296121   -0.706725
     27          1           0        0.131541    0.341532   -1.219331
     28          1           0        3.855196   -0.741123   -0.255773
     29          1           0        3.276812   -0.593177   -1.924670
     30          1           0        1.805112    2.203532    1.000178
     31          1           0        1.036292    0.149445    2.295414
 ---------------------------------------------------------------------

 SCF Done:  E(RM062X) =  -617.497448292     A.U. after    1 cycles

 The electronic state is 1-A.
 Alpha  occ. eigenvalues --  -19.62827 -19.62753 -19.62413 -10.62961 -10.58914
 Alpha  occ. eigenvalues --  -10.57987 -10.57951 -10.57498 -10.53272 -10.53147
 Alpha  occ. eigenvalues --  -10.52845 -10.52793 -10.52717  -1.19457  -1.16256
 Alpha  occ. eigenvalues --   -1.12860  -0.90675  -0.89524  -0.87184  -0.84494
 Alpha  occ. eigenvalues --   -0.74796  -0.74088  -0.72855  -0.70896  -0.66278
 Alpha  occ. eigenvalues --   -0.62546  -0.59434  -0.58578  -0.56589  -0.55195
 Alpha  occ. eigenvalues --   -0.54122  -0.53149  -0.52179  -0.50239  -0.49557
 Alpha  occ. eigenvalues --   -0.48805  -0.46585  -0.45711  -0.45647  -0.45047
 Alpha  occ. eigenvalues --   -0.43214  -0.42385  -0.42226  -0.39978  -0.39407
 Alpha  occ. eigenvalues --   -0.38338  -0.37142  -0.36404  -0.34139  -0.32770
 Alpha  occ. eigenvalues --   -0.31681
 Alpha virt. eigenvalues --   -0.00190   0.00740   0.00884   0.01197   0.02288
 Alpha virt. eigenvalues --    0.02529   0.02679   0.03220   0.03438   0.04617
 Alpha virt. eigenvalues --    0.04801   0.05095   0.05458   0.05759   0.07387

 Mulliken charges:
               1
     1  C   -0.435496
     2  C   -0.260913
     3  C   -0.499978
     4  C   -0.289743
     5  C   -0.212839
     6  O   -0.282944
     7  C   -0.082212
     8  C    0.153041
     9  C   -0.278360
    10  C   -0.359328
    11  O   -0.243963
    12  O   -0.298187
    13  C   -0.421402
    14  H    0.161836
    15  H    0.171592
    16  H    0.210641
    17  H    0.186994
    18  H    0.177631
    19  H    0.140576
    20  H    0.203408
    21  H    0.145757
    22  H    0.191766
    23  H    0.200427
    24  H    0.216044
    25  H    0.184584
    26  H    0.175408
    27  H    0.366754
    28  H    0.159722
    29  H    0.200294
    30  H    0.172862
    31  H    0.246029
 Sum of Mulliken charges =  -0.00000

 Dipole moment (field-independent basis, Debye):
    X=              1.0761    Y=              1.8116    Z=              1.3944  Tot=              2.5267
 Quadrupole moment (field-independent basis, Debye-Ang):
   XX=            -68.6577   YY=            -82.8328   ZZ=            -79.2072
   XY=              3.1957   XZ=              1.3028   YZ=             -5.8499

  Exact polarizability: 171.398   3.160 157.478  -1.134  -2.944 154.471
 Approx polarizability: 145.767   2.355 141.023  -0.115  -0.554 144.683

                      1                      2                      3
                      A                      A                      A
 Frequencies --     36.8011                61.4390                99.3116
 Red. masses --      3.6040                 3.8259                 3.5322
 Frc consts  --      0.0029                 0.0085                 0.0205
 IR Inten    --      0.0435                 4.0834                 2.2230

                      4                      5                      6
                      A                      A                      A
 Frequencies --    131.2128               201.4233               212.5892
 Red. masses --      3.8776                 3.2254                 3.3884
 Frc consts  --      0.0393                 0.0771                 0.0902
 IR Inten    --      1.9887                 2.7827                 3.8123

                      7                      8                      9
                      A                      A                      A
 Frequencies --    255.1095               300.8101               328.4574
 Red. masses --      2.6861                 2.1489                 2.3584
 Frc consts  --      0.1030                 0.1146                 0.1499
 IR Inten    --      8.9314                 5.2233                 3.9939

                     10                     11                     12
                      A                      A                      A
 Frequencies --    391.5076               395.9780               422.5912
 Red. masses --      2.3444                 2.1870                 2.5635
 Frc consts  --      0.2117                 0.2020                 0.2697
 IR Inten    --      6.3246                 4.4665                 2.5877

                     13                     14                     15
                      A                      A                      A
 Frequencies --    448.8680               482.7860               520.6924
 Red. masses --      2.7602                 3.8448                 2.6830
 Frc consts  --      0.3277                 0.5280                 0.4286
 IR Inten    --     14.0858                 6.3065                 1.7438

                     16                     17                     18
                      A                      A                      A
 Frequencies --    533.6055               585.2242               674.1218
 Red. masses --      1.9837                 2.9152                 2.9885
 Frc consts  --      0.3328                 0.5882                 0.8002
 IR Inten    --      9.5956                16.4631                 3.3618

                     19                     20                     21
                      A                      A                      A
 Frequencies --    760.7445               798.5214               835.8861
 Red. masses --      2.2755                 3.0442                 1.6747
 Frc consts  --      0.7759                 1.1437                 0.6894
 IR Inten    --      4.3807                 3.2134                 7.3341

                     22                     23                     24
                      A                      A                      A
 Frequencies --    846.0807               856.8625               876.0184
 Red. masses --      3.1760                 1.7886                 2.3849
 Frc consts  --      1.3396                 0.7737                 1.0783
 IR Inten    --      5.1254                11.5411                15.2870

                     25                     26                     27
                      A                      A                      A
 Frequencies --    895.0468               900.5738               911.2747
 Red. masses --      2.4070                 2.5875                 2.3903
 Frc consts  --      1.1361                 1.2364                 1.1695
 IR Inten    --     40.3800                 7.1031                43.9278

                     28                     29                     30
                      A                      A                      A
 Frequencies --    923.8693               957.1970               979.2587
 Red. masses --      1.8232                 1.7841                 1.8617
 Frc consts  --      0.9169                 0.9631                 1.0519
 IR Inten    --     23.0447                24.8118                52.3640

                     31                     32                     33
                      A                      A                      A
 Frequencies --   1035.6200              1038.1062              1057.7457
 Red. masses --      2.1445                 2.0733                 2.0179
 Frc consts  --      1.3551                 1.3165                 1.3302
 IR Inten    --     12.3258                 1.8662               216.8700

                     34                     35                     36
                      A                      A                      A
 Frequencies --   1063.9246              1067.1987              1075.2661
 Red. masses --      1.8065                 1.7948                 2.3481
 Frc consts  --      1.2048                 1.2044                 1.5996
 IR Inten    --     49.0004                52.8405               107.1090

                     37                     38                     39
                      A                      A                      A
 Frequencies --   1104.5927              1146.3093              1155.2533
 Red. masses --      1.6162                 3.0110                 2.2968
 Frc consts  --      1.1618                 2.3311                 1.8061
 IR Inten    --     25.0510               143.4630                59.3567

                     40                     41                     42
                      A                      A                      A
 Frequencies --   1159.5138              1195.6019              1208.0752
 Red. masses --      2.8481                 3.1301                 1.4143
 Frc consts  --      2.2561                 2.6362                 1.2162
 IR Inten    --     50.5100               136.0243                16.5336

                     43                     44                     45
                      A                      A                      A
 Frequencies --   1225.6824              1233.4653              1242.9720
 Red. masses --      1.2980                 1.6541                 1.8632
 Frc consts  --      1.1489                 1.4828                 1.6960
 IR Inten    --     25.2985                48.8135                61.0332

                     46                     47                     48
                      A                      A                      A
 Frequencies --   1286.3917              1317.1745              1318.6173
 Red. masses --      1.2169                 1.1678                 1.1683
 Frc consts  --      1.1864                 1.1937                 1.1968
 IR Inten    --     16.4674                30.8673                12.7063

                     49                     50                     51
                      A                      A                      A
 Frequencies --   1342.0867              1355.2946              1359.4636
 Red. masses --      1.2968                 1.3525                 1.4754
 Frc consts  --      1.3762                 1.4637                 1.6066
 IR Inten    --     35.1331                 5.8772                 3.7753

                     52                     53                     54
                      A                      A                      A
 Frequencies --   1371.5924              1383.7749              1388.7869
 Red. masses --      1.3305                 1.5156                 1.5781
 Frc consts  --      1.4748                 1.7099                 1.7933
 IR Inten    --      9.7614                 8.4807                 8.6188

                     55                     56                     57
                      A                      A                      A
 Frequencies --   1391.6355              1396.7644              1403.4663
 Red. masses --      1.5581                 1.4108                 1.3529
 Frc consts  --      1.7779                 1.6217                 1.5701
 IR Inten    --      1.2860                 1.7764                 4.6069

                     58                     59                     60
                      A                      A                      A
 Frequencies --   1410.8836              1420.4524              1429.3715
 Red. masses --      1.3303                 1.2711                 1.3706
 Frc consts  --      1.5602                 1.5110                 1.6499
 IR Inten    --     15.7690                13.6308                 8.1460

                     61                     62                     63
                      A                      A                      A
 Frequencies --   1437.1860              1474.8545              1477.0463
 Red. masses --      1.2811                 1.1026                 1.1001
 Frc consts  --      1.5591                 1.4131                 1.4141
 IR Inten    --     19.1913                 5.4047                 8.7048

                     64                     65                     66
                      A                      A                      A
 Frequencies --   1482.4176              1484.2964              1495.5372
 Red. masses --      1.0877                 1.0862                 1.1036
 Frc consts  --      1.4083                 1.4099                 1.4543
 IR Inten    --      6.5400                11.3162                 9.7987

                     67                     68                     69
                      A                      A                      A
 Frequencies --   1500.5470              1508.5104              1511.2337
 Red. masses --      1.0987                 1.0945                 1.1005
 Frc consts  --      1.4576                 1.4674                 1.4808
 IR Inten    --     12.9709                 3.8139                 7.0870

                     70                     71                     72
                      A                      A                      A
 Frequencies --   3011.6767              3019.8577              3050.4629
 Red. masses --      1.0710                 1.0714                 1.0690
 Frc consts  --      5.7234                 5.7570                 5.8606
 IR Inten    --     74.9545                73.8437                52.1104

                     73                     74                     75
                      A                      A                      A
 Frequencies --   3058.5883              3061.7149              3072.3528
 Red. masses --      1.0669                 1.0627                 1.0631
 Frc consts  --      5.8805                 5.8693                 5.9124
 IR Inten    --     22.9880                43.6390                29.0641

                     76                     77                     78
                      A                      A                      A
 Frequencies --   3076.2871              3082.1622              3088.8881
 Red. masses --      1.0618                 1.0609                 1.0855
 Frc consts  --      5.9203                 5.9382                 6.1023
 IR Inten    --     38.8716                20.2205                64.7376

                     79                     80                     81
                      A                      A                      A
 Frequencies --   3111.7976              3115.1999              3117.9803
 Red. masses --      1.0979                 1.0979                 1.1022
 Frc consts  --      6.2639                 6.2775                 6.3136
 IR Inten    --     50.2337                30.7263                65.1230

                     82                     83                     84
                      A                      A                      A
 Frequencies --   3122.4988              3127.9195              3130.8684
 Red. masses --      1.1017                 1.1034                 1.0981
 Frc consts  --      6.3289                 6.3604                 6.3419
 IR Inten    --     63.0135                43.1612                49.8816

                     85                     86                     87
                      A                      A                      A
 Frequencies --   3132.2184              3157.2228              3166.1345
 Red. masses --      1.0948                 1.0926                 1.0857
 Frc consts  --      6.3286                 6.4170                 6.4124
 IR Inten    --     43.7886                22.3661                34.3918

 - Thermochemistry -
 -------------------
 Temperature   298.150 Kelvin.  Pressure   1.00000 Atm.
 Atom     1 has atomic number  6 and mass  12.00000

 Molecular mass:   186.12559 amu.
 Principal axes and moments of inertia in atomic units:
                           1         2         3
     Eigenvalues --  1070.161323446.384983753.38669
           X            0.99998   0.00548   0.00010
           Y           -0.00546   0.99744  -0.07125
           Z           -0.00049   0.07125   0.99746
 This molecule is an asymmetric top.
 Rotational symmetry number  1.
 Warning -- assumption of classical behavior for rotation
           may cause significant error
 Rotational temperatures (Kelvin)      0.08094     0.02513     0.02308
 Rotational constants (GHZ):           1.68642     0.52366     0.48083
 Zero-point vibrational energy     737404.5 (Joules/Mol)
                                  176.24391 (Kcal/Mol)
 Warning -- explicit consideration of  17 degrees of freedom as
           vibrations may cause significant error
 Vibrational temperatures:     52.95    88.40   142.89   188.79   289.80
          (Kelvin)            305.87   367.05   432.80   472.58   563.29
                              569.72   608.01   645.82   694.62   749.16
                              767.74   842.01   969.91  1094.54  1148.89
                             1202.65  1217.32  1232.83  1260.40  1287.77
                             1295.72  1311.12  1329.24  1377.19  1408.93
                             1490.03  1493.60  1521.86  1530.75  1535.46
                             1547.07  1589.26  1649.28  1662.15  1668.28
                             1720.20  1738.15  1763.48  1774.68  1788.36
                             1850.83  1895.12  1897.20  1930.96  1949.97
                             1955.96  1973.42  1990.94  1998.15  2002.25
                             2009.63  2019.27  2029.95  2043.71  2056.55
                             2067.79  2121.99  2125.14  2132.87  2135.57
                             2151.74  2158.95  2170.41  2174.33  4333.13
                             4344.90  4388.94  4400.63  4405.12  4420.43
                             4426.09  4434.54  4444.22  4477.18  4482.08
                             4486.08  4492.58  4500.38  4504.62  4506.56
                             4542.54  4555.36

 Zero-point correction=                           0.280863 (Hartree/Particle)
 Thermal correction to Energy=                    0.292522
 Thermal correction to Enthalpy=                  0.293466
 Thermal correction to Gibbs Free Energy=         0.242709
 Sum of electronic and zero-point Energies=           -617.216586
 Sum of electronic and thermal Energies=              -617.204926
 Sum of electronic and thermal Enthalpies=            -617.203982
 Sum of electronic and thermal Free Energies=         -617.254739

                     E (Thermal)             CV                S
                      KCal/Mol        Cal/Mol-Kelvin    Cal/Mol-Kelvin
 Total                  183.560             46.618            106.827
 Electronic               0.000              0.000              0.000
 Translational            0.889              2.981             41.570
 Rotational               0.889              2.981             31.005
 Vibrational            181.783             40.657             34.253
 Vibration     1          0.594              1.982              5.424
 Vibration     2          0.597              1.973              4.410
 Vibration     3          0.604              1.950              3.468
 Vibration     4          0.612              1.922              2.928
 Vibration     5          0.638              1.838              2.120
 Vibration     6          0.644              1.822              2.021
 Vibration     7          0.665              1.754              1.695
 Vibration     8          0.693              1.672              1.412
 Vibration     9          0.712              1.619              1.268
 Vibration    10          0.759              1.488              0.994
 Vibration    11          0.763              1.479              0.978
 Vibration    12          0.785              1.421              0.883
 Vibration    13          0.808              1.363              0.799
 Vibration    14          0.839              1.288              0.703
 Vibration    15          0.876              1.204              0.608
 Vibration    16          0.889              1.176              0.579
 Vibration    17          0.942              1.063              0.476

 Optimization completed.
    -- Stationary point found.
 Normal termination of Gaussian 16 at Mon Nov  5 05:22:28 2018.
