 Gaussian 16, Revision A.03,
 Gaussian 16:  ES64L-G16RevA.03 25-Dec-2016

 ----------------------------------------------------------------------
 #M062X/6-311++G(2d,2p) opt=ModRedundant freq=noraman SCRF=(Solvent=Wat
 er)
 ----------------------------------------------------------------------

 ---------------------------
 D_1a_4a_L_PSI.inp_extract_7
 ---------------------------
 Symbolic Z-matrix:
 Charge =  0 Multiplicity = 1

 SCF Done:  E(RM062X) =  -617.493180065     A.U. after   13 cycles
 SCF Done:  E(RM062X) =  -617.494157630     A.U. after   12 cycles
 SCF Done:  E(RM062X) =  -617.495256881     A.U. after   11 cycles
 SCF Done:  E(RM062X) =  -617.495662625     A.U. after   10 cycles
 SCF Done:  E(RM062X) =  -617.495858555     A.U. after   10 cycles
 SCF Done:  E(RM062X) =  -617.495869520     A.U. after    8 cycles
 SCF Done:  E(RM062X) =  -617.495870312     A.U. after    8 cycles
 Optimization completed.
    -- Stationary point found.
 Normal termination of Gaussian 16 at Sun Nov  4 22:03:52 2018.

 ----------------------------------------------------------------------
 #N Geom=AllCheck Guess=TCheck SCRF=Check GenChk RM062X/6-311++G(2d,2p)
  Freq
 ----------------------------------------------------------------------

 Structure from the checkpoint file:  "D_1a_4a_L_PSI.inp_extract_7.chk"
 ---------------------------
 D_1a_4a_L_PSI.inp_extract_7
 ---------------------------
 Charge =  0 Multiplicity = 1

                         Standard orientation:
 ---------------------------------------------------------------------
 Center     Atomic      Atomic             Coordinates (Angstroms)
 Number     Number       Type             X           Y           Z
 ---------------------------------------------------------------------
      1          6           0        2.956040    1.121027    0.049576
      2          6           0        0.868567   -0.771778   -0.551134
      3          6           0       -1.990653   -1.337577   -0.450892
      4          6           0        3.080554   -0.317890    0.549317
      5          6           0       -2.717501    1.050797   -0.426731
      6          8           0       -1.825985    1.292464    0.652613
      7          6           0        1.489674    1.478485   -0.133229
      8          6           0       -1.186369   -1.060178    0.819736
      9          6           0       -2.228961   -0.091432   -1.305227
     10          6           0       -1.743791    0.175144    1.514527
     11          8           0        0.841389    0.563593   -1.014270
     12          8           0        0.233494   -0.909212    0.688486
     13          6           0        2.304927   -1.250423   -0.380509
     14          1           0        3.469170    1.223373   -0.909941
     15          1           0        3.416391    1.821487    0.747365
     16          1           0       -2.957097   -1.711560   -0.102606
     17          1           0        4.125857   -0.621508    0.599506
     18          1           0        2.672051   -0.389125    1.559094
     19          1           0        0.969129    1.480038    0.827648
     20          1           0        1.370735    2.459603   -0.588461
     21          1           0       -1.314331    0.218163   -1.805446
     22          1           0       -2.978390   -0.303580   -2.068612
     23          1           0       -2.738177   -0.059695    1.915596
     24          1           0       -1.090194    0.456998    2.338242
     25          1           0        2.769538   -1.256223   -1.368343
     26          1           0        2.295798   -2.273491   -0.006818
     27          1           0        0.358543   -1.345121   -1.323436
     28          1           0       -3.712399    0.819900   -0.024148
     29          1           0       -2.782534    1.981052   -0.987388
     30          1           0       -1.544954   -2.146792   -1.028335
     31          1           0       -1.315239   -1.905320    1.498837
 ---------------------------------------------------------------------

 SCF Done:  E(RM062X) =  -617.495870312     A.U. after    1 cycles

 The electronic state is 1-A.
 Alpha  occ. eigenvalues --  -19.62672 -19.62611 -19.62243 -10.63234 -10.58968
 Alpha  occ. eigenvalues --  -10.57767 -10.57762 -10.57219 -10.53625 -10.52820
 Alpha  occ. eigenvalues --  -10.52775 -10.52616 -10.52605  -1.19368  -1.16157
 Alpha  occ. eigenvalues --   -1.12756  -0.90701  -0.89288  -0.87397  -0.84258
 Alpha  occ. eigenvalues --   -0.75080  -0.73555  -0.72736  -0.70946  -0.66281
 Alpha  occ. eigenvalues --   -0.61917  -0.59521  -0.58309  -0.56953  -0.55276
 Alpha  occ. eigenvalues --   -0.53783  -0.53171  -0.52055  -0.51248  -0.49229
 Alpha  occ. eigenvalues --   -0.47884  -0.46371  -0.46119  -0.45461  -0.45025
 Alpha  occ. eigenvalues --   -0.43220  -0.42724  -0.40847  -0.39738  -0.39006
 Alpha  occ. eigenvalues --   -0.37984  -0.37790  -0.35834  -0.34620  -0.32637
 Alpha  occ. eigenvalues --   -0.31447
 Alpha virt. eigenvalues --   -0.00189   0.00774   0.00954   0.01068   0.02301
 Alpha virt. eigenvalues --    0.02626   0.02730   0.03195   0.03310   0.04813
 Alpha virt. eigenvalues --    0.04973   0.05148   0.05534   0.05672   0.07282

 Mulliken charges:
               1
     1  C   -0.427986
     2  C   -0.100814
     3  C   -0.594771
     4  C   -0.289206
     5  C   -0.308564
     6  O   -0.265681
     7  C   -0.056863
     8  C    0.374677
     9  C   -0.168342
    10  C   -0.516674
    11  O   -0.206251
    12  O   -0.307919
    13  C   -0.595110
    14  H    0.155851
    15  H    0.176496
    16  H    0.235776
    17  H    0.190119
    18  H    0.168080
    19  H    0.143528
    20  H    0.207682
    21  H    0.200533
    22  H    0.198465
    23  H    0.165587
    24  H    0.221773
    25  H    0.190575
    26  H    0.184980
    27  H    0.267629
    28  H    0.155194
    29  H    0.197931
    30  H    0.168742
    31  H    0.234565
 Sum of Mulliken charges =  -0.00000

 Dipole moment (field-independent basis, Debye):
    X=             -0.9568    Y=             -2.1637    Z=             -0.1301  Tot=              2.3694
 Quadrupole moment (field-independent basis, Debye-Ang):
   XX=            -71.0645   YY=            -80.0379   ZZ=            -80.4962
   XY=              4.0665   XZ=              0.9575   YZ=              0.4342

  Exact polarizability: 168.533   1.295 159.762   1.049  -1.191 155.626
 Approx polarizability: 144.575   2.220 143.183   0.173  -1.363 144.356

                      1                      2                      3
                      A                      A                      A
 Frequencies --     26.6634                59.6853               111.4336
 Red. masses --      3.9812                 4.4397                 3.2582
 Frc consts  --      0.0017                 0.0093                 0.0238
 IR Inten    --      0.8748                 2.4893                 4.0323

                      4                      5                      6
                      A                      A                      A
 Frequencies --    129.8415               192.3098               232.5252
 Red. masses --      3.7515                 3.5268                 2.6748
 Frc consts  --      0.0373                 0.0768                 0.0852
 IR Inten    --      2.2134                 1.3573                 9.8534

                      7                      8                      9
                      A                      A                      A
 Frequencies --    276.1537               293.8934               322.4536
 Red. masses --      3.4974                 2.2453                 2.0923
 Frc consts  --      0.1571                 0.1143                 0.1282
 IR Inten    --      4.1032                 8.2308                 2.1354

                     10                     11                     12
                      A                      A                      A
 Frequencies --    387.2846               407.0136               433.4712
 Red. masses --      2.0229                 2.4035                 3.1036
 Frc consts  --      0.1788                 0.2346                 0.3436
 IR Inten    --      6.0865                 4.7468                13.3366

                     13                     14                     15
                      A                      A                      A
 Frequencies --    446.9920               498.1444               522.2280
 Red. masses --      2.4433                 3.6763                 2.2451
 Frc consts  --      0.2876                 0.5375                 0.3608
 IR Inten    --      4.5602                11.0473                 1.7524

                     16                     17                     18
                      A                      A                      A
 Frequencies --    533.1943               576.7505               663.9718
 Red. masses --      2.2345                 3.4059                 2.7562
 Frc consts  --      0.3743                 0.6675                 0.7159
 IR Inten    --     11.5230                 7.6406                 2.1629

                     19                     20                     21
                      A                      A                      A
 Frequencies --    743.2913               804.5588               838.2166
 Red. masses --      2.3887                 2.9960                 1.6659
 Frc consts  --      0.7775                 1.1426                 0.6896
 IR Inten    --      9.0887                 2.8280                 9.0229

                     22                     23                     24
                      A                      A                      A
 Frequencies --    845.1163               867.4318               872.9673
 Red. masses --      3.1597                 1.7562                 2.2744
 Frc consts  --      1.3296                 0.7785                 1.0212
 IR Inten    --      4.7033                 4.2173                 9.1196

                     25                     26                     27
                      A                      A                      A
 Frequencies --    893.5498               904.2419               913.0775
 Red. masses --      2.5031                 2.6002                 2.3820
 Frc consts  --      1.1775                 1.2526                 1.1701
 IR Inten    --     32.0351                25.9425                35.6974

                     28                     29                     30
                      A                      A                      A
 Frequencies --    924.6374               963.2559               980.6774
 Red. masses --      1.9017                 1.6746                 1.9937
 Frc consts  --      0.9579                 0.9155                 1.1297
 IR Inten    --     16.9296                 8.3447                45.6824

                     31                     32                     33
                      A                      A                      A
 Frequencies --   1035.4634              1041.4498              1056.9147
 Red. masses --      1.9228                 2.1426                 2.2924
 Frc consts  --      1.2147                 1.3692                 1.5088
 IR Inten    --     22.0031                26.0122               110.9411

                     34                     35                     36
                      A                      A                      A
 Frequencies --   1063.5668              1070.4520              1077.8516
 Red. masses --      1.7119                 1.7714                 2.4976
 Frc consts  --      1.1410                 1.1959                 1.7096
 IR Inten    --    106.4514                32.8355               141.8917

                     37                     38                     39
                      A                      A                      A
 Frequencies --   1098.2177              1141.6011              1156.3094
 Red. masses --      1.5495                 2.8918                 2.5366
 Frc consts  --      1.1011                 2.2205                 1.9983
 IR Inten    --     47.4828                82.7723                36.4554

                     40                     41                     42
                      A                      A                      A
 Frequencies --   1166.8603              1193.8235              1209.7472
 Red. masses --      2.4741                 3.0396                 1.4178
 Frc consts  --      1.9847                 2.5524                 1.2226
 IR Inten    --    101.7750               146.7472                18.5109

                     43                     44                     45
                      A                      A                      A
 Frequencies --   1231.5874              1243.2503              1249.9159
 Red. masses --      1.5782                 1.4688                 1.8039
 Frc consts  --      1.4104                 1.3376                 1.6604
 IR Inten    --     61.9114                76.2747                32.0829

                     46                     47                     48
                      A                      A                      A
 Frequencies --   1286.6039              1315.6973              1316.9747
 Red. masses --      1.2158                 1.1436                 1.1889
 Frc consts  --      1.1858                 1.1664                 1.2150
 IR Inten    --     17.1179                 4.2822                38.6430

                     49                     50                     51
                      A                      A                      A
 Frequencies --   1341.6869              1358.2682              1368.7853
 Red. masses --      1.2566                 1.3377                 1.4601
 Frc consts  --      1.3328                 1.4540                 1.6118
 IR Inten    --     26.8889                 4.9189                 1.4209

                     52                     53                     54
                      A                      A                      A
 Frequencies --   1371.0539              1385.1547              1389.3164
 Red. masses --      1.4440                 1.4959                 1.5530
 Frc consts  --      1.5993                 1.6910                 1.7661
 IR Inten    --      5.3188                 2.2337                 3.3774

                     55                     56                     57
                      A                      A                      A
 Frequencies --   1392.0322              1396.6148              1403.6362
 Red. masses --      1.4016                 1.3179                 1.4207
 Frc consts  --      1.6002                 1.5146                 1.6491
 IR Inten    --     15.9466                 9.5178                 4.3834

                     58                     59                     60
                      A                      A                      A
 Frequencies --   1409.4529              1417.7565              1429.3117
 Red. masses --      1.3825                 1.3095                 1.3258
 Frc consts  --      1.6182                 1.5508                 1.5959
 IR Inten    --     16.5034                 1.6622                17.1521

                     61                     62                     63
                      A                      A                      A
 Frequencies --   1431.6828              1476.6914              1482.4705
 Red. masses --      1.3499                 1.1024                 1.0892
 Frc consts  --      1.6302                 1.4164                 1.4103
 IR Inten    --     14.6890                 5.1494                 8.9705

                     64                     65                     66
                      A                      A                      A
 Frequencies --   1483.1901              1488.5803              1495.3174
 Red. masses --      1.0861                 1.0956                 1.1067
 Frc consts  --      1.4077                 1.4304                 1.4580
 IR Inten    --      3.3127                 8.9931                10.8655

                     67                     68                     69
                      A                      A                      A
 Frequencies --   1498.4134              1508.1490              1512.8838
 Red. masses --      1.0921                 1.0950                 1.1004
 Frc consts  --      1.4447                 1.4674                 1.4839
 IR Inten    --     16.9685                 6.3170                11.0139

                     70                     71                     72
                      A                      A                      A
 Frequencies --   3009.2274              3015.9632              3058.0490
 Red. masses --      1.0707                 1.0695                 1.0658
 Frc consts  --      5.7123                 5.7316                 5.8725
 IR Inten    --     79.3787                81.6663                36.2241

                     73                     74                     75
                      A                      A                      A
 Frequencies --   3061.1424              3066.9478              3073.1998
 Red. masses --      1.0716                 1.0630                 1.0633
 Frc consts  --      5.9161                 5.8910                 5.9168
 IR Inten    --      5.1543                49.5051                28.7901

                     76                     77                     78
                      A                      A                      A
 Frequencies --   3074.7124              3076.4139              3088.9454
 Red. masses --      1.0818                 1.0620                 1.0662
 Frc consts  --      6.0260                 5.9219                 5.9937
 IR Inten    --    109.4317                27.1440                45.0593

                     79                     80                     81
                      A                      A                      A
 Frequencies --   3109.1338              3111.6897              3117.6109
 Red. masses --      1.0973                 1.0943                 1.1023
 Frc consts  --      6.2494                 6.2426                 6.3126
 IR Inten    --     56.8926                14.6482                51.7017

                     82                     83                     84
                      A                      A                      A
 Frequencies --   3125.1990              3126.5107              3128.9964
 Red. masses --      1.0879                 1.0929                 1.0944
 Frc consts  --      6.2601                 6.2941                 6.3130
 IR Inten    --     74.5103                61.7506                26.3302

                     85                     86                     87
                      A                      A                      A
 Frequencies --   3129.4411              3131.8046              3152.2963
 Red. masses --      1.1030                 1.1012                 1.0984
 Frc consts  --      6.3646                 6.3635                 6.4305
 IR Inten    --     40.6871                51.5338                16.4765

 - Thermochemistry -
 -------------------
 Temperature   298.150 Kelvin.  Pressure   1.00000 Atm.
 Atom     1 has atomic number  6 and mass  12.00000

 Molecular mass:   186.12559 amu.
 Principal axes and moments of inertia in atomic units:
                           1         2         3
     Eigenvalues --  1183.362653149.700953399.50894
           X            0.99992   0.00897   0.00853
           Y           -0.00913   0.99978   0.01912
           Z           -0.00835  -0.01919   0.99978
 This molecule is an asymmetric top.
 Rotational symmetry number  1.
 Warning -- assumption of classical behavior for rotation
           may cause significant error
 Rotational temperatures (Kelvin)      0.07319     0.02750     0.02548
 Rotational constants (GHZ):           1.52510     0.57299     0.53088
 Zero-point vibrational energy     737611.7 (Joules/Mol)
                                  176.29343 (Kcal/Mol)
 Warning -- explicit consideration of  17 degrees of freedom as
           vibrations may cause significant error
 Vibrational temperatures:     38.36    85.87   160.33   186.81   276.69
          (Kelvin)            334.55   397.32   422.85   463.94   557.22
                              585.60   623.67   643.12   716.72   751.37
                              767.15   829.82   955.31  1069.43  1157.58
                             1206.01  1215.93  1248.04  1256.01  1285.62
                             1301.00  1313.71  1330.35  1385.91  1410.98
                             1489.80  1498.41  1520.66  1530.24  1540.14
                             1550.79  1580.09  1642.51  1663.67  1678.85
                             1717.65  1740.56  1771.98  1788.76  1798.35
                             1851.14  1893.00  1894.83  1930.39  1954.24
                             1969.38  1972.64  1992.93  1998.92  2002.82
                             2009.42  2019.52  2027.89  2039.84  2056.46
                             2059.87  2124.63  2132.94  2133.98  2141.74
                             2151.43  2155.88  2169.89  2176.70  4329.61
                             4339.30  4399.85  4404.30  4412.65  4421.65
                             4423.83  4426.27  4444.30  4473.35  4477.03
                             4485.55  4496.46  4498.35  4501.93  4502.57
                             4505.97  4535.45

 Zero-point correction=                           0.280941 (Hartree/Particle)
 Thermal correction to Energy=                    0.292558
 Thermal correction to Enthalpy=                  0.293502
 Thermal correction to Gibbs Free Energy=         0.242656
 Sum of electronic and zero-point Energies=           -617.214929
 Sum of electronic and thermal Energies=              -617.203312
 Sum of electronic and thermal Enthalpies=            -617.202368
 Sum of electronic and thermal Free Energies=         -617.253214

                     E (Thermal)             CV                S
                      KCal/Mol        Cal/Mol-Kelvin    Cal/Mol-Kelvin
 Total                  183.583             46.522            107.014
 Electronic               0.000              0.000              0.000
 Translational            0.889              2.981             41.570
 Rotational               0.889              2.981             30.917
 Vibrational            181.805             40.560             34.528
 Vibration     1          0.593              1.984              6.063
 Vibration     2          0.597              1.974              4.468
 Vibration     3          0.607              1.940              3.244
 Vibration     4          0.612              1.923              2.948
 Vibration     5          0.634              1.851              2.205
 Vibration     6          0.653              1.791              1.859
 Vibration     7          0.678              1.717              1.557
 Vibration     8          0.689              1.685              1.451
 Vibration     9          0.707              1.630              1.298
 Vibration    10          0.756              1.497              1.011
 Vibration    11          0.772              1.455              0.937
 Vibration    12          0.794              1.397              0.847
 Vibration    13          0.806              1.368              0.805
 Vibration    14          0.854              1.254              0.663
 Vibration    15          0.877              1.201              0.605
 Vibration    16          0.888              1.177              0.580
 Vibration    17          0.933              1.082              0.491

 Optimization completed.
    -- Stationary point found.
 Normal termination of Gaussian 16 at Sun Nov  4 22:59:41 2018.
