 Gaussian 16, Revision A.03,
 Gaussian 16:  ES64L-G16RevA.03 25-Dec-2016

 ----------------------------------------------------------------------
 #M062X/6-311++G(2d,2p) opt=ModRedundant freq=noraman SCRF=(Solvent=Wat
 er)
 ----------------------------------------------------------------------

 ---------------------------
 D_1a_4a_L_PSI.inp_extract_3
 ---------------------------
 Symbolic Z-matrix:
 Charge =  0 Multiplicity = 1

 SCF Done:  E(RM062X) =  -617.500314232     A.U. after   13 cycles
 SCF Done:  E(RM062X) =  -617.501036784     A.U. after   11 cycles
 SCF Done:  E(RM062X) =  -617.502285987     A.U. after   11 cycles
 SCF Done:  E(RM062X) =  -617.502510450     A.U. after   10 cycles
 SCF Done:  E(RM062X) =  -617.502743740     A.U. after   10 cycles
 SCF Done:  E(RM062X) =  -617.502752742     A.U. after    9 cycles
 SCF Done:  E(RM062X) =  -617.502753749     A.U. after    8 cycles
 SCF Done:  E(RM062X) =  -617.502753789     A.U. after    6 cycles
 Optimization completed.
    -- Stationary point found.
 Normal termination of Gaussian 16 at Sun Nov  4 22:06:23 2018.

 ----------------------------------------------------------------------
 #N Geom=AllCheck Guess=TCheck SCRF=Check GenChk RM062X/6-311++G(2d,2p)
  Freq
 ----------------------------------------------------------------------

 Structure from the checkpoint file:  "D_1a_4a_L_PSI.inp_extract_3.chk"
 ---------------------------
 D_1a_4a_L_PSI.inp_extract_3
 ---------------------------
 Charge =  0 Multiplicity = 1

                         Standard orientation:
 ---------------------------------------------------------------------
 Center     Atomic      Atomic             Coordinates (Angstroms)
 Number     Number       Type             X           Y           Z
 ---------------------------------------------------------------------
      1          6           0       -2.944154    1.029797   -0.675292
      2          6           0       -1.118621   -0.618698    0.827207
      3          6           0        1.683095   -0.008386    1.377583
      4          6           0       -2.899907   -0.473253   -0.943382
      5          6           0        2.898656    0.961904   -0.575936
      6          8           0        2.327325   -0.028630   -1.420754
      7          6           0       -1.592688    1.490126   -0.156232
      8          6           0        1.205999   -1.124405    0.447617
      9          6           0        1.987695    1.271560    0.601189
     10          6           0        2.145823   -1.254455   -0.738085
     11          8           0       -1.209472    0.776729    1.019928
     12          8           0       -0.107689   -0.952413   -0.087123
     13          6           0       -2.432678   -1.194874    0.319176
     14          1           0       -3.710056    1.251302    0.071921
     15          1           0       -3.191044    1.586438   -1.579840
     16          1           0        2.599030   -0.370818    1.852270
     17          1           0       -3.877882   -0.844093   -1.248285
     18          1           0       -2.204859   -0.676741   -1.760802
     19          1           0       -0.830591    1.351000   -0.928612
     20          1           0       -1.605215    2.539872    0.129642
     21          1           0        1.061744    1.710822    0.231500
     22          1           0        2.468106    2.005773    1.248806
     23          1           0        3.112320   -1.629262   -0.380695
     24          1           0        1.738905   -1.960540   -1.459290
     25          1           0       -3.175154   -1.067371    1.109352
     26          1           0       -2.303486   -2.262991    0.149291
     27          1           0       -0.879289   -1.025261    1.812324
     28          1           0        3.873997    0.608520   -0.217549
     29          1           0        3.059148    1.839809   -1.198271
     30          1           0        0.961902    0.174680    2.171201
     31          1           0        1.221780   -2.072516    0.997562
 ---------------------------------------------------------------------

 SCF Done:  E(RM062X) =  -617.502753789     A.U. after    1 cycles

 The electronic state is 1-A.
 Alpha  occ. eigenvalues --  -19.63006 -19.62862 -19.62770 -10.63402 -10.58923
 Alpha  occ. eigenvalues --  -10.58115 -10.57839 -10.57692 -10.53184 -10.52986
 Alpha  occ. eigenvalues --  -10.52946 -10.52816 -10.52703  -1.19816  -1.16430
 Alpha  occ. eigenvalues --   -1.13188  -0.90853  -0.89465  -0.87336  -0.84556
 Alpha  occ. eigenvalues --   -0.74770  -0.73796  -0.72503  -0.71703  -0.66185
 Alpha  occ. eigenvalues --   -0.62294  -0.60115  -0.57852  -0.57549  -0.55359
 Alpha  occ. eigenvalues --   -0.54139  -0.53140  -0.52627  -0.51007  -0.49589
 Alpha  occ. eigenvalues --   -0.47470  -0.46797  -0.46533  -0.45618  -0.45092
 Alpha  occ. eigenvalues --   -0.43574  -0.42751  -0.41049  -0.40011  -0.39445
 Alpha  occ. eigenvalues --   -0.38230  -0.37570  -0.36222  -0.34010  -0.33400
 Alpha  occ. eigenvalues --   -0.32243
 Alpha virt. eigenvalues --   -0.00175   0.00824   0.00911   0.01044   0.02311
 Alpha virt. eigenvalues --    0.02592   0.02783   0.03173   0.03295   0.04776
 Alpha virt. eigenvalues --    0.04927   0.05035   0.05488   0.05947   0.07118

 Mulliken charges:
               1
     1  C   -0.456731
     2  C   -0.069355
     3  C   -0.274486
     4  C   -0.259135
     5  C   -0.280099
     6  O   -0.300673
     7  C   -0.085694
     8  C    0.032165
     9  C   -0.370157
    10  C   -0.320876
    11  O   -0.252932
    12  O   -0.289343
    13  C   -0.511316
    14  H    0.162558
    15  H    0.174127
    16  H    0.244908
    17  H    0.188256
    18  H    0.168615
    19  H    0.157574
    20  H    0.217022
    21  H    0.176266
    22  H    0.175439
    23  H    0.183923
    24  H    0.199196
    25  H    0.197668
    26  H    0.182937
    27  H    0.227502
    28  H    0.152384
    29  H    0.195645
    30  H    0.194302
    31  H    0.240311
 Sum of Mulliken charges =  -0.00000

 Dipole moment (field-independent basis, Debye):
    X=              0.1032    Y=             -0.6408    Z=              1.7832  Tot=              1.8976
 Quadrupole moment (field-independent basis, Debye-Ang):
   XX=            -72.5720   YY=            -75.5033   ZZ=            -84.7636
   XY=             -0.0232   XZ=              6.3929   YZ=             -3.5496

  Exact polarizability: 167.677   0.176 163.693   2.010  -2.256 152.703
 Approx polarizability: 144.000  -0.981 145.394   1.230  -1.254 142.705

                      1                      2                      3
                      A                      A                      A
 Frequencies --     63.5001                83.9439               111.8794
 Red. masses --      3.7221                 3.9800                 3.5491
 Frc consts  --      0.0088                 0.0165                 0.0262
 IR Inten    --      0.8938                 2.2959                 5.6621

                      4                      5                      6
                      A                      A                      A
 Frequencies --    149.2574               190.9018               232.2612
 Red. masses --      3.5772                 3.2502                 2.8776
 Frc consts  --      0.0470                 0.0698                 0.0915
 IR Inten    --      0.9531                 2.8638                 5.0161

                      7                      8                      9
                      A                      A                      A
 Frequencies --    270.6872               278.3802               333.2037
 Red. masses --      3.3258                 2.2757                 2.0673
 Frc consts  --      0.1436                 0.1039                 0.1352
 IR Inten    --      0.6140                 5.2057                 0.3591

                     10                     11                     12
                      A                      A                      A
 Frequencies --    388.3187               400.0196               434.7001
 Red. masses --      2.4249                 2.0037                 2.4627
 Frc consts  --      0.2154                 0.1889                 0.2742
 IR Inten    --      5.4830                13.7816                10.0906

                     13                     14                     15
                      A                      A                      A
 Frequencies --    441.9380               486.3839               522.7669
 Red. masses --      3.0406                 3.7497                 2.2077
 Frc consts  --      0.3499                 0.5226                 0.3555
 IR Inten    --      5.6944                 8.1280                 4.9557

                     16                     17                     18
                      A                      A                      A
 Frequencies --    535.1178               602.8755               672.1830
 Red. masses --      2.1459                 3.6093                 2.8178
 Frc consts  --      0.3620                 0.7729                 0.7501
 IR Inten    --      4.4597                13.3690                 5.5178

                     19                     20                     21
                      A                      A                      A
 Frequencies --    734.5331               829.0834               837.4189
 Red. masses --      2.4289                 2.9710                 1.7218
 Frc consts  --      0.7721                 1.2032                 0.7114
 IR Inten    --      2.3233                 6.1959                 2.9911

                     22                     23                     24
                      A                      A                      A
 Frequencies --    845.8993               871.7007               875.1795
 Red. masses --      3.2435                 1.6889                 2.0873
 Frc consts  --      1.3674                 0.7561                 0.9419
 IR Inten    --      9.0379                 6.3840                 6.9674

                     25                     26                     27
                      A                      A                      A
 Frequencies --    897.3649               908.6075               914.3146
 Red. masses --      2.4690                 2.5817                 2.3483
 Frc consts  --      1.1714                 1.2558                 1.1566
 IR Inten    --     27.5775                 8.9427                52.2129

                     28                     29                     30
                      A                      A                      A
 Frequencies --    929.7453               951.3560              1005.4243
 Red. masses --      1.8959                 1.5926                 2.0056
 Frc consts  --      0.9656                 0.8492                 1.1945
 IR Inten    --     13.0222                 9.8388                65.9302

                     31                     32                     33
                      A                      A                      A
 Frequencies --   1032.1589              1038.4835              1060.7764
 Red. masses --      1.9529                 2.2439                 2.1136
 Frc consts  --      1.2258                 1.4258                 1.4013
 IR Inten    --     68.1654                13.9207                40.9012

                     34                     35                     36
                      A                      A                      A
 Frequencies --   1062.6843              1070.1109              1077.1191
 Red. masses --      1.7968                 1.7862                 2.4945
 Frc consts  --      1.1955                 1.2052                 1.7052
 IR Inten    --    132.0745                48.9745               119.9953

                     37                     38                     39
                      A                      A                      A
 Frequencies --   1105.9529              1145.6588              1159.5007
 Red. masses --      1.5994                 2.6344                 3.0574
 Frc consts  --      1.1526                 2.0372                 2.4219
 IR Inten    --     56.5315                29.6448               196.5517

                     40                     41                     42
                      A                      A                      A
 Frequencies --   1176.1526              1186.1830              1210.6227
 Red. masses --      2.7854                 2.7710                 1.4058
 Frc consts  --      2.2702                 2.2971                 1.2139
 IR Inten    --     81.0369                78.2155                23.4519

                     43                     44                     45
                      A                      A                      A
 Frequencies --   1228.8066              1234.5102              1246.1098
 Red. masses --      1.3773                 1.5804                 1.8191
 Frc consts  --      1.2253                 1.4191                 1.6642
 IR Inten    --     67.2558                20.1779                50.7142

                     46                     47                     48
                      A                      A                      A
 Frequencies --   1287.8710              1308.9336              1322.6237
 Red. masses --      1.2154                 1.1393                 1.1572
 Frc consts  --      1.1878                 1.1500                 1.1927
 IR Inten    --     20.3988                10.8450                 9.6875

                     49                     50                     51
                      A                      A                      A
 Frequencies --   1341.4207              1359.1045              1366.0843
 Red. masses --      1.2361                 1.3510                 1.3958
 Frc consts  --      1.3105                 1.4703                 1.5347
 IR Inten    --     16.8615                 8.8649                 7.1444

                     52                     53                     54
                      A                      A                      A
 Frequencies --   1370.3052              1379.1945              1387.5303
 Red. masses --      1.4520                 1.3277                 1.5235
 Frc consts  --      1.6064                 1.4880                 1.7282
 IR Inten    --      2.0834                31.7356                 7.2481

                     55                     56                     57
                      A                      A                      A
 Frequencies --   1390.8706              1399.5562              1405.4681
 Red. masses --      1.5083                 1.4290                 1.3868
 Frc consts  --      1.7192                 1.6492                 1.6140
 IR Inten    --      6.8279                16.9498                16.1155

                     58                     59                     60
                      A                      A                      A
 Frequencies --   1411.0351              1427.6439              1430.4357
 Red. masses --      1.4891                 1.3725                 1.3876
 Frc consts  --      1.7469                 1.6481                 1.6728
 IR Inten    --      4.6425                21.5147                 4.1351

                     61                     62                     63
                      A                      A                      A
 Frequencies --   1437.9518              1476.6179              1479.7848
 Red. masses --      1.3324                 1.1050                 1.0902
 Frc consts  --      1.6232                 1.4195                 1.4066
 IR Inten    --     10.9845                 5.2553                10.3533

                     64                     65                     66
                      A                      A                      A
 Frequencies --   1483.3815              1486.8007              1490.8019
 Red. masses --      1.0871                 1.1088                 1.0886
 Frc consts  --      1.4094                 1.4441                 1.4254
 IR Inten    --      7.2024                17.6977                 5.2556

                     67                     68                     69
                      A                      A                      A
 Frequencies --   1495.4691              1509.6016              1511.5493
 Red. masses --      1.1074                 1.0945                 1.1006
 Frc consts  --      1.4592                 1.4696                 1.4815
 IR Inten    --     12.1779                 3.4344                 8.3124

                     70                     71                     72
                      A                      A                      A
 Frequencies --   3013.6031              3021.1979              3031.9410
 Red. masses --      1.0707                 1.0785                 1.0738
 Frc consts  --      5.7289                 5.8001                 5.8160
 IR Inten    --     83.0714                17.8773               120.0078

                     73                     74                     75
                      A                      A                      A
 Frequencies --   3054.4199              3063.0863              3066.3660
 Red. masses --      1.0681                 1.0627                 1.0705
 Frc consts  --      5.8713                 5.8744                 5.9307
 IR Inten    --     40.6585                45.8806                46.0932

                     76                     77                     78
                      A                      A                      A
 Frequencies --   3069.5929              3072.4101              3081.3180
 Red. masses --      1.0692                 1.0671                 1.0750
 Frc consts  --      5.9356                 5.9348                 6.0134
 IR Inten    --     29.9212                16.8258                85.6827

                     79                     80                     81
                      A                      A                      A
 Frequencies --   3088.6896              3113.1647              3118.6771
 Red. masses --      1.0636                 1.0979                 1.1020
 Frc consts  --      5.9780                 6.2693                 6.3148
 IR Inten    --     36.3459                38.5742                65.6226

                     82                     83                     84
                      A                      A                      A
 Frequencies --   3128.5739              3128.7101              3133.0363
 Red. masses --      1.0936                 1.1029                 1.0990
 Frc consts  --      6.3066                 6.3611                 6.3562
 IR Inten    --     39.9696                43.0086                54.0548

                     85                     86                     87
                      A                      A                      A
 Frequencies --   3134.1575              3137.0930              3143.5654
 Red. masses --      1.0952                 1.0939                 1.0994
 Frc consts  --      6.3384                 6.3431                 6.4011
 IR Inten    --     24.0317                36.0901                30.4279

 - Thermochemistry -
 -------------------
 Temperature   298.150 Kelvin.  Pressure   1.00000 Atm.
 Atom     1 has atomic number  6 and mass  12.00000

 Molecular mass:   186.12559 amu.
 Principal axes and moments of inertia in atomic units:
                           1         2         3
     Eigenvalues --  1204.831473379.369103570.70002
           X            0.99984   0.00471   0.01746
           Y           -0.00382   0.99869  -0.05107
           Z           -0.01767   0.05100   0.99854
 This molecule is an asymmetric top.
 Rotational symmetry number  1.
 Warning -- assumption of classical behavior for rotation
           may cause significant error
 Rotational temperatures (Kelvin)      0.07189     0.02563     0.02426
 Rotational constants (GHZ):           1.49792     0.53405     0.50543
 Zero-point vibrational energy     738056.5 (Joules/Mol)
                                  176.39974 (Kcal/Mol)
 Warning -- explicit consideration of  17 degrees of freedom as
           vibrations may cause significant error
 Vibrational temperatures:     91.36   120.78   160.97   214.75   274.67
          (Kelvin)            334.17   389.46   400.53   479.41   558.70
                              575.54   625.44   635.85   699.80   752.14
                              769.92   867.40   967.12  1056.83  1192.87
                             1204.86  1217.06  1254.18  1259.19  1291.11
                             1307.28  1315.49  1337.70  1368.79  1446.58
                             1485.05  1494.15  1526.22  1528.97  1539.65
                             1549.73  1591.22  1648.35  1668.26  1692.22
                             1706.65  1741.82  1767.98  1776.18  1792.87
                             1852.96  1883.26  1902.96  1930.01  1955.45
                             1965.49  1971.56  1984.35  1996.35  2001.15
                             2013.65  2022.16  2030.16  2054.06  2058.08
                             2068.89  2124.52  2129.08  2134.26  2139.17
                             2144.93  2151.65  2171.98  2174.78  4335.90
                             4346.83  4362.29  4394.63  4407.10  4411.82
                             4416.46  4420.51  4433.33  4443.94  4479.15
                             4487.08  4501.32  4501.52  4507.74  4509.35
                             4513.58  4522.89

 Zero-point correction=                           0.281111 (Hartree/Particle)
 Thermal correction to Energy=                    0.292571
 Thermal correction to Enthalpy=                  0.293515
 Thermal correction to Gibbs Free Energy=         0.243840
 Sum of electronic and zero-point Energies=           -617.221643
 Sum of electronic and thermal Energies=              -617.210183
 Sum of electronic and thermal Enthalpies=            -617.209239
 Sum of electronic and thermal Free Energies=         -617.258914

                     E (Thermal)             CV                S
                      KCal/Mol        Cal/Mol-Kelvin    Cal/Mol-Kelvin
 Total                  183.591             46.398            104.550
 Electronic               0.000              0.000              0.000
 Translational            0.889              2.981             41.570
 Rotational               0.889              2.981             31.053
 Vibrational            181.813             40.437             31.927
 Vibration     1          0.597              1.972              4.345
 Vibration     2          0.601              1.960              3.796
 Vibration     3          0.607              1.940              3.236
 Vibration     4          0.618              1.903              2.682
 Vibration     5          0.634              1.852              2.219
 Vibration     6          0.653              1.792              1.861
 Vibration     7          0.674              1.727              1.592
 Vibration     8          0.679              1.714              1.544
 Vibration     9          0.715              1.609              1.245
 Vibration    10          0.756              1.495              1.007
 Vibration    11          0.766              1.470              0.963
 Vibration    12          0.795              1.395              0.843
 Vibration    13          0.802              1.379              0.821
 Vibration    14          0.842              1.280              0.693
 Vibration    15          0.878              1.200              0.604
 Vibration    16          0.890              1.172              0.576
 Vibration    17          0.961              1.026              0.445

 Optimization completed.
    -- Stationary point found.
 Normal termination of Gaussian 16 at Sun Nov  4 23:02:53 2018.
