 Gaussian 16, Revision A.03,
 Gaussian 16:  ES64L-G16RevA.03 25-Dec-2016

 ----------------------------------------------------------------------
 #M062X/6-311++G(2d,2p) opt=ModRedundant freq=noraman SCRF=(Solvent=Wat
 er)
 ----------------------------------------------------------------------

 ----------------------------
 D_1a_4a_L_PSI.inp_extract_15
 ----------------------------
 Symbolic Z-matrix:
 Charge =  0 Multiplicity = 1

 SCF Done:  E(RM062X) =  -617.498127436     A.U. after   13 cycles
 SCF Done:  E(RM062X) =  -617.499450852     A.U. after   12 cycles
 SCF Done:  E(RM062X) =  -617.500151468     A.U. after   11 cycles
 SCF Done:  E(RM062X) =  -617.500351899     A.U. after   10 cycles
 SCF Done:  E(RM062X) =  -617.500380733     A.U. after    9 cycles
 SCF Done:  E(RM062X) =  -617.500382107     A.U. after    8 cycles
 SCF Done:  E(RM062X) =  -617.500382192     A.U. after    7 cycles
 Optimization completed.
    -- Stationary point found.
 Normal termination of Gaussian 16 at Mon Nov  5 04:26:08 2018.

 ----------------------------------------------------------------------
 #N Geom=AllCheck Guess=TCheck SCRF=Check GenChk RM062X/6-311++G(2d,2p)
  Freq
 ----------------------------------------------------------------------

 Structure from the checkpoint file:  "D_1a_4a_L_PSI.inp_extract_15.chk"
 ----------------------------
 D_1a_4a_L_PSI.inp_extract_15
 ----------------------------
 Charge =  0 Multiplicity = 1

                         Standard orientation:
 ---------------------------------------------------------------------
 Center     Atomic      Atomic             Coordinates (Angstroms)
 Number     Number       Type             X           Y           Z
 ---------------------------------------------------------------------
      1          6           0       -3.532331   -0.053256    0.176282
      2          6           0       -0.760357    0.002792   -0.607256
      3          6           0        2.119050    0.687152    1.357673
      4          6           0       -2.835818    1.293022   -0.016338
      5          6           0        3.232611    0.082551   -0.781585
      6          8           0        2.172144   -0.811573   -1.090935
      7          6           0       -2.509908   -1.112282    0.554343
      8          6           0        1.027503   -0.330918    1.037047
      9          6           0        2.734944    1.235023    0.073647
     10          6           0        1.583967   -1.373203    0.070072
     11          8           0       -1.472383   -1.207779   -0.420939
     12          8           0       -0.111585    0.400513    0.570550
     13          6           0       -1.690980    1.134273   -1.015766
     14          1           0       -4.024759   -0.351024   -0.752758
     15          1           0       -4.296308    0.005064    0.952276
     16          1           0        2.890245    0.192352    1.953474
     17          1           0       -3.539792    2.046781   -0.367655
     18          1           0       -2.439931    1.637837    0.940818
     19          1           0       -2.070538   -0.882713    1.529430
     20          1           0       -2.958723   -2.101992    0.604091
     21          1           0        1.986179    1.797145   -0.488398
     22          1           0        3.559964    1.910966    0.298369
     23          1           0        2.334669   -1.950909    0.622414
     24          1           0        0.806722   -2.053109   -0.268827
     25          1           0       -2.092604    0.888622   -2.000651
     26          1           0       -1.108887    2.050366   -1.110674
     27          1           0       -0.038528   -0.214895   -1.391576
     28          1           0        4.024642   -0.464489   -0.254555
     29          1           0        3.627602    0.427877   -1.734621
     30          1           0        1.695835    1.485174    1.967347
     31          1           0        0.726718   -0.863270    1.943377
 ---------------------------------------------------------------------

 SCF Done:  E(RM062X) =  -617.500382192     A.U. after    1 cycles

 The electronic state is 1-A.
 Alpha  occ. eigenvalues --  -19.63005 -19.62804 -19.62593 -10.62972 -10.58953
 Alpha  occ. eigenvalues --  -10.58170 -10.57959 -10.57578 -10.53171 -10.52948
 Alpha  occ. eigenvalues --  -10.52889 -10.52848 -10.52747  -1.19616  -1.16471
 Alpha  occ. eigenvalues --   -1.12868  -0.90944  -0.89606  -0.86919  -0.84738
 Alpha  occ. eigenvalues --   -0.74908  -0.74051  -0.72762  -0.70807  -0.66136
 Alpha  occ. eigenvalues --   -0.62454  -0.59678  -0.59050  -0.57105  -0.54852
 Alpha  occ. eigenvalues --   -0.54197  -0.53226  -0.52359  -0.49887  -0.49797
 Alpha  occ. eigenvalues --   -0.48517  -0.46841  -0.45860  -0.45564  -0.45233
 Alpha  occ. eigenvalues --   -0.43523  -0.42763  -0.40784  -0.40254  -0.39444
 Alpha  occ. eigenvalues --   -0.38348  -0.37321  -0.36632  -0.34104  -0.32870
 Alpha  occ. eigenvalues --   -0.32116
 Alpha virt. eigenvalues --   -0.00171   0.00818   0.00882   0.01099   0.02251
 Alpha virt. eigenvalues --    0.02460   0.02725   0.03331   0.03468   0.04633
 Alpha virt. eigenvalues --    0.04701   0.04889   0.05330   0.06000   0.07059

 Mulliken charges:
               1
     1  C   -0.411881
     2  C   -0.142569
     3  C   -0.524534
     4  C   -0.289536
     5  C   -0.231909
     6  O   -0.279662
     7  C   -0.107484
     8  C    0.126100
     9  C   -0.256666
    10  C   -0.330476
    11  O   -0.291050
    12  O   -0.275144
    13  C   -0.433692
    14  H    0.162367
    15  H    0.171978
    16  H    0.206183
    17  H    0.184177
    18  H    0.176141
    19  H    0.141885
    20  H    0.201757
    21  H    0.141616
    22  H    0.198233
    23  H    0.195286
    24  H    0.246783
    25  H    0.189345
    26  H    0.174958
    27  H    0.292742
    28  H    0.159854
    29  H    0.199875
    30  H    0.170405
    31  H    0.234915
 Sum of Mulliken charges =  -0.00000

 Dipole moment (field-independent basis, Debye):
    X=              0.7193    Y=              1.1135    Z=              1.9332  Tot=              2.3440
 Quadrupole moment (field-independent basis, Debye-Ang):
   XX=            -69.7826   YY=            -81.4161   ZZ=            -80.8817
   XY=              0.9392   XZ=              2.3043   YZ=             -5.4469

  Exact polarizability: 172.041   2.662 157.360  -0.953  -3.808 154.366
 Approx polarizability: 145.807   1.855 142.055   0.335  -1.329 143.715

 ******    1 imaginary frequencies (negative Signs) ******

                      1                      2                      3
                      A                      A                      A
 Frequencies --    -26.1214                63.1409               102.1036
 Red. masses --      3.7329                 3.8028                 3.4912
 Frc consts  --      0.0015                 0.0089                 0.0214
 IR Inten    --      1.8412                 2.3225                 2.4240

                      4                      5                      6
                      A                      A                      A
 Frequencies --    131.2768               188.3186               226.3413
 Red. masses --      4.0901                 3.2380                 3.1485
 Frc consts  --      0.0415                 0.0677                 0.0950
 IR Inten    --      0.2926                 7.6096                10.5410

                      7                      8                      9
                      A                      A                      A
 Frequencies --    258.4289               287.8604               349.1818
 Red. masses --      2.8827                 2.1842                 2.5413
 Frc consts  --      0.1134                 0.1066                 0.1826
 IR Inten    --      3.9696                 4.7548                 5.6333

                     10                     11                     12
                      A                      A                      A
 Frequencies --    375.2146               393.9888               434.5709
 Red. masses --      2.0860                 2.0943                 2.9824
 Frc consts  --      0.1730                 0.1915                 0.3319
 IR Inten    --      5.2473                 3.8540                 3.4763

                     13                     14                     15
                      A                      A                      A
 Frequencies --    445.1528               484.3038               519.6059
 Red. masses --      2.4517                 4.0114                 2.5112
 Frc consts  --      0.2862                 0.5543                 0.3995
 IR Inten    --      9.1982                 8.1050                 1.8580

                     16                     17                     18
                      A                      A                      A
 Frequencies --    535.4783               594.1528               690.1581
 Red. masses --      1.8965                 2.8967                 3.2214
 Frc consts  --      0.3204                 0.6025                 0.9040
 IR Inten    --      5.0936                10.7353                 4.0727

                     19                     20                     21
                      A                      A                      A
 Frequencies --    753.2963               813.0436               835.8480
 Red. masses --      2.4803                 2.8353                 1.8100
 Frc consts  --      0.8292                 1.1043                 0.7451
 IR Inten    --      9.0856                10.0081                 6.3489

                     22                     23                     24
                      A                      A                      A
 Frequencies --    841.7190               865.8853               878.2355
 Red. masses --      3.3339                 2.1861                 1.7357
 Frc consts  --      1.3917                 0.9657                 0.7888
 IR Inten    --     10.5841                 9.8429                17.5667

                     25                     26                     27
                      A                      A                      A
 Frequencies --    893.1584               902.3292               917.3246
 Red. masses --      2.5713                 2.6348                 2.2849
 Frc consts  --      1.2086                 1.2639                 1.1328
 IR Inten    --     41.5157                18.6001                35.9366

                     28                     29                     30
                      A                      A                      A
 Frequencies --    925.7665               949.9650               987.8743
 Red. masses --      1.8711                 1.6913                 1.8290
 Frc consts  --      0.9448                 0.8993                 1.0516
 IR Inten    --      6.7362                26.9631                34.8480

                     31                     32                     33
                      A                      A                      A
 Frequencies --   1037.6602              1040.9097              1055.6215
 Red. masses --      2.1017                 2.1888                 2.1486
 Frc consts  --      1.3333                 1.3973                 1.4106
 IR Inten    --     39.0483                11.6977               197.5870

                     34                     35                     36
                      A                      A                      A
 Frequencies --   1057.4032              1068.6054              1078.7240
 Red. masses --      1.8139                 1.6597                 2.3963
 Frc consts  --      1.1949                 1.1166                 1.6429
 IR Inten    --      6.7213                21.4960               156.4802

                     37                     38                     39
                      A                      A                      A
 Frequencies --   1102.5872              1147.6456              1150.4732
 Red. masses --      1.5815                 2.6889                 2.6463
 Frc consts  --      1.1328                 2.0866                 2.0637
 IR Inten    --     22.4788                85.3888                91.2436

                     40                     41                     42
                      A                      A                      A
 Frequencies --   1169.8320              1193.0634              1209.2094
 Red. masses --      2.4606                 3.5994                 1.4021
 Frc consts  --      1.9840                 3.0186                 1.2079
 IR Inten    --     65.1173               174.6164                26.8870

                     43                     44                     45
                      A                      A                      A
 Frequencies --   1225.8220              1232.7858              1244.4026
 Red. masses --      1.3445                 1.6023                 1.8445
 Frc consts  --      1.1903                 1.4347                 1.6829
 IR Inten    --     41.8387                26.1497                68.5817

                     46                     47                     48
                      A                      A                      A
 Frequencies --   1287.5984              1306.3725              1319.3276
 Red. masses --      1.2143                 1.1444                 1.1513
 Frc consts  --      1.1861                 1.1507                 1.1807
 IR Inten    --     18.4872                41.5396                 7.6603

                     49                     50                     51
                      A                      A                      A
 Frequencies --   1339.7950              1360.0455              1363.6899
 Red. masses --      1.2438                 1.3956                 1.3741
 Frc consts  --      1.3154                 1.5210                 1.5055
 IR Inten    --     27.8683                13.2097                 1.8424

                     52                     53                     54
                      A                      A                      A
 Frequencies --   1368.7700              1384.4072              1387.2597
 Red. masses --      1.4359                 1.4831                 1.4498
 Frc consts  --      1.5850                 1.6748                 1.6439
 IR Inten    --      8.9619                 6.1396                 0.9509

                     55                     56                     57
                      A                      A                      A
 Frequencies --   1394.6663              1397.8441              1405.0319
 Red. masses --      1.4765                 1.5590                 1.3834
 Frc consts  --      1.6920                 1.7948                 1.6091
 IR Inten    --      5.1532                16.2276                 4.1421

                     58                     59                     60
                      A                      A                      A
 Frequencies --   1406.0909              1421.1181              1434.1919
 Red. masses --      1.3351                 1.3464                 1.3350
 Frc consts  --      1.5552                 1.6021                 1.6179
 IR Inten    --      5.1727                 0.8128                11.5456

                     61                     62                     63
                      A                      A                      A
 Frequencies --   1437.9587              1475.1898              1476.2632
 Red. masses --      1.3500                 1.1057                 1.0880
 Frc consts  --      1.6446                 1.4177                 1.3970
 IR Inten    --     19.9002                 3.9650                 7.5905

                     64                     65                     66
                      A                      A                      A
 Frequencies --   1482.4682              1485.8222              1496.1031
 Red. masses --      1.0871                 1.1141                 1.1087
 Frc consts  --      1.4077                 1.4492                 1.4621
 IR Inten    --      7.6865                13.6478                13.8877

                     67                     68                     69
                      A                      A                      A
 Frequencies --   1501.1170              1508.6700              1513.1101
 Red. masses --      1.0788                 1.0944                 1.1010
 Frc consts  --      1.4322                 1.4677                 1.4852
 IR Inten    --      5.6114                 2.9921                12.9903

                     70                     71                     72
                      A                      A                      A
 Frequencies --   3014.3615              3028.7880              3052.5819
 Red. masses --      1.0707                 1.0716                 1.0697
 Frc consts  --      5.7321                 5.7921                 5.8727
 IR Inten    --     79.7761                46.2735                70.6506

                     73                     74                     75
                      A                      A                      A
 Frequencies --   3056.0274              3061.4840              3068.5167
 Red. masses --      1.0781                 1.0625                 1.0710
 Frc consts  --      5.9324                 5.8674                 5.9416
 IR Inten    --     23.1414                47.4779                48.2875

                     76                     77                     78
                      A                      A                      A
 Frequencies --   3071.4068              3071.5656              3076.8369
 Red. masses --      1.0613                 1.0628                 1.0620
 Frc consts  --      5.8986                 5.9079                 5.9234
 IR Inten    --     63.3804                27.8929                26.1259

                     79                     80                     81
                      A                      A                      A
 Frequencies --   3111.1524              3116.1913              3117.4882
 Red. masses --      1.0979                 1.0986                 1.1021
 Frc consts  --      6.2613                 6.2856                 6.3110
 IR Inten    --     47.5403                36.0118                58.9526

                     82                     83                     84
                      A                      A                      A
 Frequencies --   3121.2032              3127.5342              3130.2309
 Red. masses --      1.1030                 1.1036                 1.0944
 Frc consts  --      6.3312                 6.3599                 6.3183
 IR Inten    --     52.7762                43.6555                49.6063

                     85                     86                     87
                      A                      A                      A
 Frequencies --   3132.0011              3135.1075              3154.2592
 Red. masses --      1.0958                 1.0897                 1.0930
 Frc consts  --      6.3335                 6.3106                 6.4069
 IR Inten    --     39.7655                30.8123                14.0245

 - Thermochemistry -
 -------------------
 Temperature   298.150 Kelvin.  Pressure   1.00000 Atm.
 Atom     1 has atomic number  6 and mass  12.00000

 Molecular mass:   186.12559 amu.
 Principal axes and moments of inertia in atomic units:
                           1         2         3
     Eigenvalues --  1031.460963712.888213903.11314
           X            0.99999   0.00082   0.00345
           Y           -0.00048   0.99519  -0.09801
           Z           -0.00352   0.09801   0.99518
 This molecule is an asymmetric top.
 Rotational symmetry number  1.
 Warning -- assumption of classical behavior for rotation
           may cause significant error
 Rotational temperatures (Kelvin)      0.08397     0.02333     0.02219
 Rotational constants (GHZ):           1.74969     0.48607     0.46239
    1 imaginary frequencies ignored.
 Zero-point vibrational energy     737247.3 (Joules/Mol)
                                  176.20632 (Kcal/Mol)
 Warning -- explicit consideration of  16 degrees of freedom as
           vibrations may cause significant error
 Vibrational temperatures:     90.85   146.90   188.88   270.95   325.65
          (Kelvin)            371.82   414.17   502.39   539.85   566.86
                              625.25   640.48   696.81   747.60   770.43
                              854.85   992.98  1083.83  1169.79  1202.60
                             1211.05  1245.82  1263.58  1285.06  1298.25
                             1319.83  1331.97  1366.79  1421.33  1492.96
                             1497.64  1518.80  1521.37  1537.48  1552.04
                             1586.38  1651.21  1655.27  1683.13  1716.55
                             1739.78  1763.68  1773.70  1790.42  1852.57
                             1879.58  1898.22  1927.67  1956.80  1962.05
                             1969.35  1991.85  1995.96  2006.61  2011.19
                             2021.53  2023.05  2044.67  2063.48  2068.90
                             2122.47  2124.01  2132.94  2137.77  2152.56
                             2159.77  2170.64  2177.03  4336.99  4357.75
                             4391.98  4396.94  4404.79  4414.91  4419.07
                             4419.30  4426.88  4476.25  4483.50  4485.37
                             4490.72  4499.82  4503.70  4506.25  4510.72
                             4538.28

 Zero-point correction=                           0.280803 (Hartree/Particle)
 Thermal correction to Energy=                    0.291571
 Thermal correction to Enthalpy=                  0.292515
 Thermal correction to Gibbs Free Energy=         0.244374
 Sum of electronic and zero-point Energies=           -617.219580
 Sum of electronic and thermal Energies=              -617.208811
 Sum of electronic and thermal Enthalpies=            -617.207867
 Sum of electronic and thermal Free Energies=         -617.256009

                     E (Thermal)             CV                S
                      KCal/Mol        Cal/Mol-Kelvin    Cal/Mol-Kelvin
 Total                  182.964             44.537            101.323
 Electronic               0.000              0.000              0.000
 Translational            0.889              2.981             41.570
 Rotational               0.889              2.981             31.081
 Vibrational            181.186             38.575             28.672
 Vibration     1          0.597              1.972              4.357
 Vibration     2          0.604              1.947              3.414
 Vibration     3          0.612              1.922              2.927
 Vibration     4          0.633              1.856              2.244
 Vibration     5          0.650              1.801              1.908
 Vibration     6          0.667              1.749              1.672
 Vibration     7          0.685              1.696              1.487
 Vibration     8          0.726              1.577              1.170
 Vibration     9          0.746              1.523              1.058
 Vibration    10          0.761              1.483              0.985
 Vibration    11          0.795              1.395              0.844
 Vibration    12          0.805              1.372              0.811
 Vibration    13          0.840              1.285              0.699
 Vibration    14          0.875              1.207              0.611
 Vibration    15          0.890              1.172              0.575
 Vibration    16          0.952              1.044              0.460

 Optimization completed.
    -- Stationary point found.
 Normal termination of Gaussian 16 at Mon Nov  5 05:20:49 2018.
