 Gaussian 16, Revision A.03,
 Gaussian 16:  ES64L-G16RevA.03 25-Dec-2016

 ----------------------------------------------------------------------
 #M062X/6-311++G(2d,2p) opt=ModRedundant freq=noraman SCRF=(Solvent=Wat
 er)
 ----------------------------------------------------------------------

 ---------------------------
 D_1a_4a_L_PSI.inp_extract_6
 ---------------------------
 Symbolic Z-matrix:
 Charge =  0 Multiplicity = 1

 SCF Done:  E(RM062X) =  -617.492669422     A.U. after   13 cycles
 SCF Done:  E(RM062X) =  -617.493610552     A.U. after   12 cycles
 SCF Done:  E(RM062X) =  -617.494423172     A.U. after   11 cycles
 SCF Done:  E(RM062X) =  -617.494752277     A.U. after   10 cycles
 SCF Done:  E(RM062X) =  -617.494897929     A.U. after   10 cycles
 SCF Done:  E(RM062X) =  -617.494944060     A.U. after   10 cycles
 SCF Done:  E(RM062X) =  -617.494957509     A.U. after    9 cycles
 SCF Done:  E(RM062X) =  -617.494964122     A.U. after    9 cycles
 SCF Done:  E(RM062X) =  -617.494964366     A.U. after    9 cycles
 SCF Done:  E(RM062X) =  -617.494964657     A.U. after    7 cycles
 Optimization completed.
    -- Stationary point found.
 Normal termination of Gaussian 16 at Sun Nov  4 22:17:02 2018.

 ----------------------------------------------------------------------
 #N Geom=AllCheck Guess=TCheck SCRF=Check GenChk RM062X/6-311++G(2d,2p)
  Freq
 ----------------------------------------------------------------------

 Structure from the checkpoint file:  "D_1a_4a_L_PSI.inp_extract_6.chk"
 ---------------------------
 D_1a_4a_L_PSI.inp_extract_6
 ---------------------------
 Charge =  0 Multiplicity = 1

                         Standard orientation:
 ---------------------------------------------------------------------
 Center     Atomic      Atomic             Coordinates (Angstroms)
 Number     Number       Type             X           Y           Z
 ---------------------------------------------------------------------
      1          6           0        3.015531    1.100000    0.133430
      2          6           0        0.911261   -0.731567   -0.592316
      3          6           0       -1.963832   -1.247289   -0.660928
      4          6           0        3.069807   -0.343006    0.633284
      5          6           0       -2.783459    1.079351   -0.299117
      6          8           0       -1.951728    1.175840    0.849238
      7          6           0        1.572370    1.500002   -0.127250
      8          6           0       -1.204645   -1.137986    0.660798
      9          6           0       -2.205899    0.110741   -1.319991
     10          6           0       -1.851461   -0.063227    1.523267
     11          8           0        0.945754    0.607637   -1.047785
     12          8           0        0.198493   -0.847360    0.606320
     13          6           0        2.323099   -1.248793   -0.344977
     14          1           0        3.582893    1.189644   -0.796351
     15          1           0        3.456752    1.785336    0.858037
     16          1           0       -2.928819   -1.690786   -0.400838
     17          1           0        4.101199   -0.676986    0.742863
     18          1           0        2.600884   -0.405460    1.617205
     19          1           0        1.001543    1.510961    0.804790
     20          1           0        1.506918    2.485928   -0.582877
     21          1           0       -1.274786    0.519792   -1.707080
     22          1           0       -2.903560    0.004041   -2.151342
     23          1           0       -2.847992   -0.402704    1.832374
     24          1           0       -1.245876    0.107940    2.411338
     25          1           0        2.843532   -1.262993   -1.304633
     26          1           0        2.263990   -2.273000    0.021299
     27          1           0        0.433060   -1.286272   -1.396688
     28          1           0       -3.784260    0.751356    0.010384
     29          1           0       -2.863204    2.085079   -0.706604
     30          1           0       -1.485485   -1.950163   -1.341060
     31          1           0       -1.293585   -2.090006    1.189804
 ---------------------------------------------------------------------

 SCF Done:  E(RM062X) =  -617.494964656     A.U. after    1 cycles

 The electronic state is 1-A.
 Alpha  occ. eigenvalues --  -19.62701 -19.62619 -19.62328 -10.63272 -10.59012
 Alpha  occ. eigenvalues --  -10.57822 -10.57782 -10.57289 -10.53611 -10.52825
 Alpha  occ. eigenvalues --  -10.52786 -10.52638 -10.52586  -1.19348  -1.16232
 Alpha  occ. eigenvalues --   -1.12745  -0.90731  -0.89354  -0.87412  -0.84306
 Alpha  occ. eigenvalues --   -0.75083  -0.73453  -0.72755  -0.71041  -0.66389
 Alpha  occ. eigenvalues --   -0.61847  -0.59625  -0.58219  -0.57143  -0.55212
 Alpha  occ. eigenvalues --   -0.53772  -0.53120  -0.52439  -0.51246  -0.49255
 Alpha  occ. eigenvalues --   -0.47579  -0.46426  -0.46277  -0.45613  -0.45075
 Alpha  occ. eigenvalues --   -0.43272  -0.42688  -0.40855  -0.39770  -0.39033
 Alpha  occ. eigenvalues --   -0.38027  -0.37836  -0.36054  -0.34140  -0.32702
 Alpha  occ. eigenvalues --   -0.31686
 Alpha virt. eigenvalues --   -0.00184   0.00790   0.00959   0.01033   0.02275
 Alpha virt. eigenvalues --    0.02608   0.02726   0.03186   0.03321   0.04776
 Alpha virt. eigenvalues --    0.04940   0.05070   0.05516   0.05639   0.07189

 Mulliken charges:
               1
     1  C   -0.406891
     2  C   -0.096058
     3  C   -0.556347
     4  C   -0.292225
     5  C   -0.274884
     6  O   -0.278691
     7  C   -0.106139
     8  C    0.303529
     9  C   -0.225410
    10  C   -0.469216
    11  O   -0.226109
    12  O   -0.294329
    13  C   -0.544297
    14  H    0.156516
    15  H    0.177458
    16  H    0.238465
    17  H    0.188354
    18  H    0.169945
    19  H    0.151271
    20  H    0.203857
    21  H    0.198926
    22  H    0.193876
    23  H    0.171924
    24  H    0.217529
    25  H    0.189835
    26  H    0.183635
    27  H    0.283959
    28  H    0.155925
    29  H    0.194460
    30  H    0.158724
    31  H    0.232405
 Sum of Mulliken charges =   0.00000

 Dipole moment (field-independent basis, Debye):
    X=             -0.8260    Y=             -2.3486    Z=             -0.4338  Tot=              2.5272
 Quadrupole moment (field-independent basis, Debye-Ang):
   XX=            -71.1579   YY=            -79.0514   ZZ=            -81.2671
   XY=              4.0230   XZ=              2.0692   YZ=             -0.0921

  Exact polarizability: 168.368   1.426 160.337   1.309  -1.596 155.272
 Approx polarizability: 144.509   2.500 143.672   0.297  -1.352 143.758

 ******    1 imaginary frequencies (negative Signs) ******

                      1                      2                      3
                      A                      A                      A
 Frequencies --    -45.5463                46.8472               110.3366
 Red. masses --      4.1625                 4.4933                 3.2946
 Frc consts  --      0.0051                 0.0058                 0.0236
 IR Inten    --      0.6670                 2.7921                 5.2091

                      4                      5                      6
                      A                      A                      A
 Frequencies --    129.0226               188.9102               231.9338
 Red. masses --      3.8052                 3.3970                 2.6401
 Frc consts  --      0.0373                 0.0714                 0.0837
 IR Inten    --      0.6362                 1.2022                 8.6018

                      7                      8                      9
                      A                      A                      A
 Frequencies --    276.9984               287.5322               326.7099
 Red. masses --      3.8143                 2.1380                 2.0992
 Frc consts  --      0.1724                 0.1041                 0.1320
 IR Inten    --      3.3986                 5.3401                 1.5705

                     10                     11                     12
                      A                      A                      A
 Frequencies --    393.2652               406.7525               433.7640
 Red. masses --      2.0337                 2.3923                 3.3951
 Frc consts  --      0.1853                 0.2332                 0.3764
 IR Inten    --      6.1309                 6.6986                17.0546

                     13                     14                     15
                      A                      A                      A
 Frequencies --    450.2238               498.6398               524.5069
 Red. masses --      2.3717                 3.6178                 2.2531
 Frc consts  --      0.2832                 0.5300                 0.3652
 IR Inten    --      3.2503                10.1315                 2.8465

                     16                     17                     18
                      A                      A                      A
 Frequencies --    535.8073               573.5644               659.4579
 Red. masses --      2.1634                 3.7880                 2.5865
 Frc consts  --      0.3659                 0.7342                 0.6627
 IR Inten    --     11.4426                 7.7662                 2.5119

                     19                     20                     21
                      A                      A                      A
 Frequencies --    740.3346               810.3927               838.5053
 Red. masses --      2.4174                 2.9303                 1.6734
 Frc consts  --      0.7806                 1.1338                 0.6932
 IR Inten    --      9.2441                 2.2599                 8.7982

                     22                     23                     24
                      A                      A                      A
 Frequencies --    844.9114               871.0244               875.5145
 Red. masses --      3.3183                 2.0600                 1.8219
 Frc consts  --      1.3957                 0.9208                 0.8228
 IR Inten    --      6.6385                 3.6241                 8.3200

                     25                     26                     27
                      A                      A                      A
 Frequencies --    893.7224               903.0196               912.9680
 Red. masses --      2.5425                 2.5856                 2.3588
 Frc consts  --      1.1965                 1.2422                 1.1584
 IR Inten    --     39.3841                16.3849                39.6150

                     28                     29                     30
                      A                      A                      A
 Frequencies --    926.0145               960.8372               983.2495
 Red. masses --      1.9189                 1.6463                 2.0091
 Frc consts  --      0.9695                 0.8955                 1.1444
 IR Inten    --     16.3028                 7.0071                45.0736

                     31                     32                     33
                      A                      A                      A
 Frequencies --   1034.1196              1040.3800              1058.0947
 Red. masses --      1.9071                 2.1097                 2.1535
 Frc consts  --      1.2016                 1.3454                 1.4205
 IR Inten    --     35.2411                34.9305                66.3385

                     34                     35                     36
                      A                      A                      A
 Frequencies --   1062.6304              1070.1111              1078.9735
 Red. masses --      1.7034                 1.8998                 2.4747
 Frc consts  --      1.1332                 1.2818                 1.6975
 IR Inten    --    125.3547                17.7603               177.9074

                     37                     38                     39
                      A                      A                      A
 Frequencies --   1100.7818              1140.5798              1155.6991
 Red. masses --      1.5785                 2.8199                 2.6870
 Frc consts  --      1.1269                 2.1614                 2.1145
 IR Inten    --     56.6927                71.8222                60.5064

                     40                     41                     42
                      A                      A                      A
 Frequencies --   1166.4853              1192.2297              1209.8202
 Red. masses --      2.3676                 3.0545                 1.4195
 Frc consts  --      1.8981                 2.5581                 1.2241
 IR Inten    --     90.7184               151.0131                18.9209

                     43                     44                     45
                      A                      A                      A
 Frequencies --   1231.2801              1243.1674              1251.5731
 Red. masses --      1.5850                 1.5161                 1.7268
 Frc consts  --      1.4158                 1.3805                 1.5937
 IR Inten    --     64.7854                77.1601                27.6880

                     46                     47                     48
                      A                      A                      A
 Frequencies --   1285.8471              1313.3670              1315.7143
 Red. masses --      1.2167                 1.1629                 1.1536
 Frc consts  --      1.1853                 1.1818                 1.1766
 IR Inten    --     18.4207                21.6959                15.0117

                     49                     50                     51
                      A                      A                      A
 Frequencies --   1341.5386              1356.4551              1369.4119
 Red. masses --      1.2378                 1.3374                 1.4331
 Frc consts  --      1.3125                 1.4498                 1.5834
 IR Inten    --     22.7845                 8.5254                 0.9851

                     52                     53                     54
                      A                      A                      A
 Frequencies --   1374.5379              1384.7602              1387.9023
 Red. masses --      1.4606                 1.4309                 1.3072
 Frc consts  --      1.6259                 1.6166                 1.4836
 IR Inten    --      6.8118                 5.1241                 4.8526

                     55                     56                     57
                      A                      A                      A
 Frequencies --   1389.8286              1394.9960              1404.2701
 Red. masses --      1.6361                 1.3809                 1.4763
 Frc consts  --      1.8620                 1.5833                 1.7152
 IR Inten    --     18.6708                 4.8002                 7.1413

                     58                     59                     60
                      A                      A                      A
 Frequencies --   1409.2720              1417.5082              1429.2719
 Red. masses --      1.3898                 1.3268                 1.3285
 Frc consts  --      1.6263                 1.5707                 1.5990
 IR Inten    --     14.6078                 1.5768                16.3297

                     61                     62                     63
                      A                      A                      A
 Frequencies --   1433.1108              1476.0784              1482.3064
 Red. masses --      1.3497                 1.1030                 1.0867
 Frc consts  --      1.6332                 1.4160                 1.4068
 IR Inten    --     14.7595                 5.0149                 7.7718

                     64                     65                     66
                      A                      A                      A
 Frequencies --   1484.4105              1490.6177              1495.1727
 Red. masses --      1.0887                 1.0938                 1.1058
 Frc consts  --      1.4133                 1.4319                 1.4565
 IR Inten    --      5.0573                 8.3061                10.8769

                     67                     68                     69
                      A                      A                      A
 Frequencies --   1503.2032              1510.2065              1514.3007
 Red. masses --      1.0941                 1.0940                 1.0967
 Frc consts  --      1.4566                 1.4701                 1.4817
 IR Inten    --     12.5416                 4.7508                16.4670

                     70                     71                     72
                      A                      A                      A
 Frequencies --   3011.9731              3022.5885              3057.4291
 Red. masses --      1.0707                 1.0692                 1.0681
 Frc consts  --      5.7232                 5.7554                 5.8828
 IR Inten    --     82.7134                70.5622                48.1372

                     73                     74                     75
                      A                      A                      A
 Frequencies --   3057.7392              3065.4463              3070.2892
 Red. masses --      1.0776                 1.0627                 1.0751
 Frc consts  --      5.9361                 5.8839                 5.9714
 IR Inten    --     16.6890                46.7526                94.7617

                     76                     77                     78
                      A                      A                      A
 Frequencies --   3072.0013              3075.7461              3088.7464
 Red. masses --      1.0630                 1.0619                 1.0648
 Frc consts  --      5.9108                 5.9189                 5.9855
 IR Inten    --     31.8381                30.4890                44.6433

                     79                     80                     81
                      A                      A                      A
 Frequencies --   3110.0882              3114.7090              3117.0924
 Red. masses --      1.0975                 1.0944                 1.1021
 Frc consts  --      6.2544                 6.2555                 6.3091
 IR Inten    --     50.0200                21.7338                51.5017

                     82                     83                     84
                      A                      A                      A
 Frequencies --   3128.1300              3128.3734              3131.5173
 Red. masses --      1.1034                 1.0930                 1.0994
 Frc consts  --      6.3612                 6.3023                 6.3520
 IR Inten    --     41.1103                56.7631                49.0556

                     85                     86                     87
                      A                      A                      A
 Frequencies --   3132.4872              3136.4405              3149.2805
 Red. masses --      1.0952                 1.0877                 1.0997
 Frc consts  --      6.3316                 6.3044                 6.4264
 IR Inten    --     28.9694                70.0024                11.5841

 - Thermochemistry -
 -------------------
 Temperature   298.150 Kelvin.  Pressure   1.00000 Atm.
 Atom     1 has atomic number  6 and mass  12.00000

 Molecular mass:   186.12559 amu.
 Principal axes and moments of inertia in atomic units:
                           1         2         3
     Eigenvalues --  1181.187713269.289463478.71394
           X            0.99991   0.00773   0.01059
           Y           -0.00784   0.99992   0.01034
           Z           -0.01051  -0.01043   0.99989
 This molecule is an asymmetric top.
 Rotational symmetry number  1.
 Warning -- assumption of classical behavior for rotation
           may cause significant error
 Rotational temperatures (Kelvin)      0.07333     0.02649     0.02490
 Rotational constants (GHZ):           1.52790     0.55203     0.51880
    1 imaginary frequencies ignored.
 Zero-point vibrational energy     737526.8 (Joules/Mol)
                                  176.27314 (Kcal/Mol)
 Warning -- explicit consideration of  16 degrees of freedom as
           vibrations may cause significant error
 Vibrational temperatures:     67.40   158.75   185.63   271.80   333.70
          (Kelvin)            398.54   413.69   470.06   565.82   585.23
                              624.09   647.77   717.43   754.65   770.91
                              825.23   948.81  1065.18  1165.97  1206.42
                             1215.64  1253.21  1259.67  1285.87  1299.24
                             1313.56  1332.33  1382.43  1414.68  1487.87
                             1496.87  1522.36  1528.89  1539.65  1552.40
                             1583.78  1641.04  1662.79  1678.31  1715.35
                             1740.66  1771.54  1788.64  1800.73  1850.05
                             1889.64  1893.02  1930.17  1951.64  1970.28
                             1977.65  1992.36  1996.88  1999.65  2007.09
                             2020.43  2027.63  2039.48  2056.40  2061.93
                             2123.75  2132.71  2135.74  2144.67  2151.22
                             2162.77  2172.85  2178.74  4333.56  4348.83
                             4398.96  4399.40  4410.49  4417.46  4419.92
                             4425.31  4444.02  4474.72  4481.37  4484.80
                             4500.68  4501.03  4505.55  4506.95  4512.64
                             4531.11

 Zero-point correction=                           0.280909 (Hartree/Particle)
 Thermal correction to Energy=                    0.291669
 Thermal correction to Enthalpy=                  0.292613
 Thermal correction to Gibbs Free Energy=         0.244374
 Sum of electronic and zero-point Energies=           -617.214056
 Sum of electronic and thermal Energies=              -617.203296
 Sum of electronic and thermal Enthalpies=            -617.202351
 Sum of electronic and thermal Free Energies=         -617.250591

                     E (Thermal)             CV                S
                      KCal/Mol        Cal/Mol-Kelvin    Cal/Mol-Kelvin
 Total                  183.025             44.524            101.529
 Electronic               0.000              0.000              0.000
 Translational            0.889              2.981             41.570
 Rotational               0.889              2.981             30.975
 Vibrational            181.248             38.562             28.985
 Vibration     1          0.595              1.979              4.946
 Vibration     2          0.606              1.941              3.263
 Vibration     3          0.612              1.924              2.961
 Vibration     4          0.633              1.855              2.238
 Vibration     5          0.653              1.792              1.864
 Vibration     6          0.678              1.716              1.552
 Vibration     7          0.685              1.697              1.488
 Vibration     8          0.710              1.622              1.276
 Vibration     9          0.760              1.485              0.988
 Vibration    10          0.772              1.456              0.938
 Vibration    11          0.795              1.397              0.846
 Vibration    12          0.809              1.360              0.795
 Vibration    13          0.854              1.253              0.662
 Vibration    14          0.879              1.196              0.600
 Vibration    15          0.891              1.171              0.574
 Vibration    16          0.930              1.088              0.497

 Optimization completed.
    -- Stationary point found.
 Normal termination of Gaussian 16 at Sun Nov  4 23:14:21 2018.
