 Gaussian 16, Revision A.03,
 Gaussian 16:  ES64L-G16RevA.03 25-Dec-2016

 ----------------------------------------------------------------------
 #M062X/6-311++G(2d,2p) opt=ModRedundant freq=noraman SCRF=(Solvent=Wat
 er)
 ----------------------------------------------------------------------

 ----------------------------
 D_1a_4a_L_PSI.inp_extract_17
 ----------------------------
 Symbolic Z-matrix:
 Charge =  0 Multiplicity = 1

 SCF Done:  E(RM062X) =  -617.501906568     A.U. after   13 cycles
 SCF Done:  E(RM062X) =  -617.503916742     A.U. after   11 cycles
 SCF Done:  E(RM062X) =  -617.504013610     A.U. after   10 cycles
 SCF Done:  E(RM062X) =  -617.504210916     A.U. after   10 cycles
 SCF Done:  E(RM062X) =  -617.504216648     A.U. after    9 cycles
 SCF Done:  E(RM062X) =  -617.504219022     A.U. after    8 cycles
 SCF Done:  E(RM062X) =  -617.504219052     A.U. after    7 cycles
 Optimization completed.
    -- Stationary point found.
 Normal termination of Gaussian 16 at Mon Nov  5 04:25:41 2018.

 ----------------------------------------------------------------------
 #N Geom=AllCheck Guess=TCheck SCRF=Check GenChk RM062X/6-311++G(2d,2p)
  Freq
 ----------------------------------------------------------------------

 Structure from the checkpoint file:  "D_1a_4a_L_PSI.inp_extract_17.chk"
 ----------------------------
 D_1a_4a_L_PSI.inp_extract_17
 ----------------------------
 Charge =  0 Multiplicity = 1

                         Standard orientation:
 ---------------------------------------------------------------------
 Center     Atomic      Atomic             Coordinates (Angstroms)
 Number     Number       Type             X           Y           Z
 ---------------------------------------------------------------------
      1          6           0       -3.501084   -0.018390    0.392519
      2          6           0       -0.867199   -0.067667   -0.763076
      3          6           0        1.966564    0.442187    1.489223
      4          6           0       -2.850785    1.295629   -0.036791
      5          6           0        3.366254    0.221378   -0.570415
      6          8           0        2.340231   -0.549648   -1.185109
      7          6           0       -2.425024   -1.029353    0.750597
      8          6           0        0.929262   -0.437866    0.801698
      9          6           0        2.794139    1.195151    0.447826
     10          6           0        1.626667   -1.314796   -0.232431
     11          8           0       -1.524361   -1.242237   -0.337512
     12          8           0       -0.039351    0.450783    0.245373
     13          6           0       -1.848285    1.024239   -1.157104
     14          1           0       -4.106519   -0.417543   -0.424907
     15          1           0       -4.157543    0.127876    1.250793
     16          1           0        2.616863   -0.197523    2.090036
     17          1           0       -3.602719    2.009715   -0.370846
     18          1           0       -2.334384    1.740709    0.815813
     19          1           0       -1.864618   -0.686583    1.625643
     20          1           0       -2.848585   -2.005803    0.974624
     21          1           0        2.164802    1.920448   -0.068951
     22          1           0        3.608700    1.740628    0.924752
     23          1           0        2.312216   -1.979359    0.307381
     24          1           0        0.921034   -1.935014   -0.779269
     25          1           0       -2.374719    0.684226   -2.050787
     26          1           0       -1.287018    1.919872   -1.421114
     27          1           0       -0.268982   -0.376416   -1.621264
     28          1           0        4.078869   -0.457026   -0.084448
     29          1           0        3.881265    0.742353   -1.374723
     30          1           0        1.466100    1.132449    2.168129
     31          1           0        0.440043   -1.097272    1.524845
 ---------------------------------------------------------------------

 SCF Done:  E(RM062X) =  -617.504219052     A.U. after    1 cycles

 The electronic state is 1-A.
 Alpha  occ. eigenvalues --  -19.63023 -19.63017 -19.63002 -10.63262 -10.58781
 Alpha  occ. eigenvalues --  -10.58047 -10.57940 -10.57835 -10.53241 -10.53022
 Alpha  occ. eigenvalues --  -10.52951 -10.52884 -10.52866  -1.20102  -1.16483
 Alpha  occ. eigenvalues --   -1.13095  -0.91077  -0.89705  -0.86854  -0.84791
 Alpha  occ. eigenvalues --   -0.74899  -0.74092  -0.72859  -0.70921  -0.65988
 Alpha  occ. eigenvalues --   -0.62690  -0.59856  -0.58938  -0.57588  -0.55247
 Alpha  occ. eigenvalues --   -0.54321  -0.52903  -0.52461  -0.49992  -0.49848
 Alpha  occ. eigenvalues --   -0.48344  -0.47072  -0.45826  -0.45648  -0.45511
 Alpha  occ. eigenvalues --   -0.43622  -0.43231  -0.40334  -0.40120  -0.39344
 Alpha  occ. eigenvalues --   -0.38273  -0.37742  -0.36410  -0.34888  -0.33328
 Alpha  occ. eigenvalues --   -0.32052
 Alpha virt. eigenvalues --   -0.00169   0.00842   0.00899   0.01016   0.02230
 Alpha virt. eigenvalues --    0.02465   0.02730   0.03280   0.03464   0.04586
 Alpha virt. eigenvalues --    0.04708   0.04841   0.05469   0.05885   0.07078

 Mulliken charges:
               1
     1  C   -0.400314
     2  C   -0.040502
     3  C   -0.509396
     4  C   -0.286109
     5  C   -0.186660
     6  O   -0.286878
     7  C   -0.100650
     8  C    0.112893
     9  C   -0.301237
    10  C   -0.380635
    11  O   -0.277397
    12  O   -0.260757
    13  C   -0.474277
    14  H    0.164791
    15  H    0.173782
    16  H    0.213617
    17  H    0.184222
    18  H    0.170827
    19  H    0.129268
    20  H    0.203534
    21  H    0.164883
    22  H    0.180046
    23  H    0.189931
    24  H    0.237490
    25  H    0.195495
    26  H    0.180989
    27  H    0.255478
    28  H    0.154820
    29  H    0.199425
    30  H    0.168098
    31  H    0.225222
 Sum of Mulliken charges =  -0.00000

 Dipole moment (field-independent basis, Debye):
    X=              0.0087    Y=              0.5754    Z=              2.3290  Tot=              2.3990
 Quadrupole moment (field-independent basis, Debye-Ang):
   XX=            -70.4962   YY=            -81.1618   ZZ=            -80.5609
   XY=             -0.2480   XZ=              3.2850   YZ=             -3.9518

  Exact polarizability: 171.698   2.369 156.584  -1.080  -3.217 155.026
 Approx polarizability: 145.180   1.892 142.829   0.427  -1.404 143.443

                      1                      2                      3
                      A                      A                      A
 Frequencies --     54.6630                68.2564               110.2454
 Red. masses --      3.8336                 3.7056                 3.5262
 Frc consts  --      0.0067                 0.0102                 0.0253
 IR Inten    --      0.6247                 3.0559                 1.7928

                      4                      5                      6
                      A                      A                      A
 Frequencies --    133.0030               189.5009               230.0516
 Red. masses --      4.0680                 3.0173                 3.2233
 Frc consts  --      0.0424                 0.0638                 0.1005
 IR Inten    --      0.8178                 6.7762                 9.7176

                      7                      8                      9
                      A                      A                      A
 Frequencies --    267.4570               284.8463               353.4022
 Red. masses --      2.7298                 2.2099                 2.4454
 Frc consts  --      0.1151                 0.1056                 0.1799
 IR Inten    --      3.2436                 7.6062                 6.6266

                     10                     11                     12
                      A                      A                      A
 Frequencies --    372.8492               399.5555               439.3651
 Red. masses --      2.1476                 2.1984                 3.8228
 Frc consts  --      0.1759                 0.2068                 0.4348
 IR Inten    --      5.1180                 1.4192                 7.4374

                     13                     14                     15
                      A                      A                      A
 Frequencies --    454.3521               493.8881               522.8471
 Red. masses --      2.1346                 4.4832                 2.4830
 Frc consts  --      0.2596                 0.6443                 0.3999
 IR Inten    --      3.8931                10.2837                 3.3270

                     16                     17                     18
                      A                      A                      A
 Frequencies --    540.6834               598.7289               703.5037
 Red. masses --      1.8018                 2.7241                 3.2309
 Frc consts  --      0.3103                 0.5754                 0.9421
 IR Inten    --      2.5431                 6.1303                 3.5729

                     19                     20                     21
                      A                      A                      A
 Frequencies --    749.6172               827.8727               838.1583
 Red. masses --      2.5886                 1.9965                 2.3779
 Frc consts  --      0.8570                 0.8062                 0.9842
 IR Inten    --     13.1900                 9.3218                 1.7434

                     22                     23                     24
                      A                      A                      A
 Frequencies --    839.6658               867.6789               877.3529
 Red. masses --      3.5256                 2.2390                 1.6251
 Frc consts  --      1.4645                 0.9932                 0.7370
 IR Inten    --     10.5982                10.8744                15.3028

                     25                     26                     27
                      A                      A                      A
 Frequencies --    895.7449               904.5820               919.7209
 Red. masses --      2.4985                 2.6276                 2.4624
 Frc consts  --      1.1812                 1.2668                 1.2272
 IR Inten    --     28.5048                25.5003                34.2580

                     28                     29                     30
                      A                      A                      A
 Frequencies --    928.1916               948.9910               999.5410
 Red. masses --      1.7860                 1.6686                 1.7959
 Frc consts  --      0.9066                 0.8854                 1.0571
 IR Inten    --      6.0759                27.7336                21.1842

                     31                     32                     33
                      A                      A                      A
 Frequencies --   1038.9369              1041.7461              1057.3614
 Red. masses --      2.3947                 2.1085                 1.9503
 Frc consts  --      1.5229                 1.3482                 1.2847
 IR Inten    --     46.6062                10.1531                96.9316

                     34                     35                     36
                      A                      A                      A
 Frequencies --   1058.2603              1068.7612              1079.8406
 Red. masses --      1.9751                 1.6297                 2.4533
 Frc consts  --      1.3033                 1.0968                 1.6855
 IR Inten    --    105.9270                25.2170               119.7781

                     37                     38                     39
                      A                      A                      A
 Frequencies --   1101.0326              1150.5313              1153.6720
 Red. masses --      1.5255                 2.8908                 2.4442
 Frc consts  --      1.0896                 2.2545                 1.9167
 IR Inten    --     20.2729                 7.4268               154.6924

                     40                     41                     42
                      A                      A                      A
 Frequencies --   1173.5910              1190.7398              1212.4228
 Red. masses --      2.4855                 3.4622                 1.3934
 Frc consts  --      2.0169                 2.8923                 1.2068
 IR Inten    --     70.5111               164.2880                15.1065

                     43                     44                     45
                      A                      A                      A
 Frequencies --   1232.0121              1234.2940              1245.9680
 Red. masses --      1.4469                 1.5624                 1.7497
 Frc consts  --      1.2940                 1.4024                 1.6004
 IR Inten    --     96.3556                15.1206                46.9321

                     46                     47                     48
                      A                      A                      A
 Frequencies --   1289.5601              1298.9283              1322.4742
 Red. masses --      1.2115                 1.1430                 1.1538
 Frc consts  --      1.1871                 1.1363                 1.1889
 IR Inten    --     15.9639                43.3300                 9.3540

                     49                     50                     51
                      A                      A                      A
 Frequencies --   1336.0291              1358.1431              1363.3719
 Red. masses --      1.2334                 1.3563                 1.3444
 Frc consts  --      1.2971                 1.4739                 1.4723
 IR Inten    --     15.9144                21.9561                 1.1470

                     52                     53                     54
                      A                      A                      A
 Frequencies --   1368.7637              1381.7426              1386.8889
 Red. masses --      1.5098                 1.3103                 1.4736
 Frc consts  --      1.6665                 1.4739                 1.6700
 IR Inten    --     10.4176                 9.4071                 2.9324

                     55                     56                     57
                      A                      A                      A
 Frequencies --   1392.6027              1396.2115              1403.3631
 Red. masses --      1.5178                 1.7935                 1.4279
 Frc consts  --      1.7343                 2.0600                 1.6569
 IR Inten    --     11.4894                15.1738                 2.1277

                     58                     59                     60
                      A                      A                      A
 Frequencies --   1410.8837              1419.1117              1429.9112
 Red. masses --      1.2978                 1.3856                 1.3452
 Frc consts  --      1.5221                 1.6441                 1.6206
 IR Inten    --      2.4542                 0.2512                 9.9107

                     61                     62                     63
                      A                      A                      A
 Frequencies --   1440.1081              1475.3745              1476.2715
 Red. masses --      1.3780                 1.1042                 1.0864
 Frc consts  --      1.6838                 1.4162                 1.3951
 IR Inten    --     15.9867                 5.0535                 6.5294

                     64                     65                     66
                      A                      A                      A
 Frequencies --   1482.9734              1486.8799              1496.1592
 Red. masses --      1.0875                 1.1131                 1.1090
 Frc consts  --      1.4091                 1.4499                 1.4626
 IR Inten    --      7.8566                13.3272                13.3826

                     67                     68                     69
                      A                      A                      A
 Frequencies --   1505.6271              1507.6907              1519.9025
 Red. masses --      1.0844                 1.0945                 1.0955
 Frc consts  --      1.4484                 1.4659                 1.4911
 IR Inten    --      2.5726                 2.9580                21.6822

                     70                     71                     72
                      A                      A                      A
 Frequencies --   3015.5167              3026.0791              3050.9157
 Red. masses --      1.0707                 1.0721                 1.0721
 Frc consts  --      5.7365                 5.7842                 5.8794
 IR Inten    --     78.2441                48.5847                90.9501

                     73                     74                     75
                      A                      A                      A
 Frequencies --   3052.3058              3062.3951              3072.3792
 Red. masses --      1.0788                 1.0629                 1.0647
 Frc consts  --      5.9215                 5.8729                 5.9214
 IR Inten    --     18.1324                43.0360                62.8048

                     76                     77                     78
                      A                      A                      A
 Frequencies --   3073.2540              3077.4850              3081.4194
 Red. masses --      1.0630                 1.0632                 1.0607
 Frc consts  --      5.9152                 5.9326                 5.9342
 IR Inten    --     31.3196                16.0601                24.3012

                     79                     80                     81
                      A                      A                      A
 Frequencies --   3096.0280              3112.9692              3116.4586
 Red. masses --      1.0849                 1.0981                 1.1010
 Frc consts  --      6.1272                 6.2694                 6.3005
 IR Inten    --     65.8117                36.2397                33.1250

                     82                     83                     84
                      A                      A                      A
 Frequencies --   3119.1966              3126.3224              3129.5632
 Red. masses --      1.1022                 1.1019                 1.1034
 Frc consts  --      6.3182                 6.3454                 6.3675
 IR Inten    --     61.9513                52.5038                42.0841

                     85                     86                     87
                      A                      A                      A
 Frequencies --   3132.9205              3134.3935              3149.8406
 Red. masses --      1.0968                 1.0981                 1.0920
 Frc consts  --      6.3425                 6.3563                 6.3836
 IR Inten    --     48.2046                45.7248                25.7961

 - Thermochemistry -
 -------------------
 Temperature   298.150 Kelvin.  Pressure   1.00000 Atm.
 Atom     1 has atomic number  6 and mass  12.00000

 Molecular mass:   186.12559 amu.
 Principal axes and moments of inertia in atomic units:
                           1         2         3
     Eigenvalues --  1012.529913832.831533933.26280
           X            0.99999  -0.00103   0.00514
           Y            0.00171   0.99098  -0.13399
           Z           -0.00495   0.13400   0.99097
 This molecule is an asymmetric top.
 Rotational symmetry number  1.
 Warning -- assumption of classical behavior for rotation
           may cause significant error
 Rotational temperatures (Kelvin)      0.08554     0.02260     0.02202
 Rotational constants (GHZ):           1.78241     0.47086     0.45884
 Zero-point vibrational energy     738286.7 (Joules/Mol)
                                  176.45476 (Kcal/Mol)
 Warning -- explicit consideration of  17 degrees of freedom as
           vibrations may cause significant error
 Vibrational temperatures:     78.65    98.21   158.62   191.36   272.65
          (Kelvin)            330.99   384.81   409.83   508.47   536.45
                              574.87   632.15   653.71   710.59   752.26
                              777.92   861.44  1012.18  1078.53  1191.12
                             1205.92  1208.09  1248.40  1262.32  1288.78
                             1301.49  1323.27  1335.46  1365.39  1438.12
                             1494.80  1498.84  1521.31  1522.60  1537.71
                             1553.65  1584.14  1655.36  1659.88  1688.54
                             1713.21  1744.41  1772.59  1775.87  1792.67
                             1855.39  1868.87  1902.75  1922.25  1954.06
                             1961.59  1969.35  1988.02  1995.42  2003.64
                             2008.84  2019.13  2029.95  2041.79  2057.32
                             2071.99  2122.73  2124.03  2133.67  2139.29
                             2152.64  2166.26  2169.23  2186.80  4338.66
                             4353.85  4389.59  4391.59  4406.10  4420.47
                             4421.73  4427.81  4433.48  4454.49  4478.87
                             4483.89  4487.83  4498.08  4502.74  4507.57
                             4509.69  4531.92

 Zero-point correction=                           0.281199 (Hartree/Particle)
 Thermal correction to Energy=                    0.292699
 Thermal correction to Enthalpy=                  0.293643
 Thermal correction to Gibbs Free Energy=         0.243558
 Sum of electronic and zero-point Energies=           -617.223020
 Sum of electronic and thermal Energies=              -617.211520
 Sum of electronic and thermal Enthalpies=            -617.210576
 Sum of electronic and thermal Free Energies=         -617.260661

                     E (Thermal)             CV                S
                      KCal/Mol        Cal/Mol-Kelvin    Cal/Mol-Kelvin
 Total                  183.671             46.305            105.412
 Electronic               0.000              0.000              0.000
 Translational            0.889              2.981             41.570
 Rotational               0.889              2.981             31.102
 Vibrational            181.894             40.343             32.740
 Vibration     1          0.596              1.976              4.641
 Vibration     2          0.598              1.969              4.203
 Vibration     3          0.606              1.941              3.265
 Vibration     4          0.613              1.920              2.902
 Vibration     5          0.633              1.854              2.233
 Vibration     6          0.652              1.795              1.879
 Vibration     7          0.673              1.733              1.613
 Vibration     8          0.683              1.702              1.504
 Vibration     9          0.730              1.568              1.151
 Vibration    10          0.744              1.528              1.068
 Vibration    11          0.766              1.471              0.964
 Vibration    12          0.799              1.384              0.829
 Vibration    13          0.813              1.351              0.783
 Vibration    14          0.850              1.264              0.674
 Vibration    15          0.878              1.199              0.603
 Vibration    16          0.896              1.160              0.564
 Vibration    17          0.957              1.034              0.452

 Optimization completed.
    -- Stationary point found.
 Normal termination of Gaussian 16 at Mon Nov  5 05:23:14 2018.
