 Gaussian 16, Revision A.03,
 Gaussian 16:  ES64L-G16RevA.03 25-Dec-2016

 ----------------------------------------------------------------------
 #M062X/6-311++G(2d,2p) opt=ModRedundant freq=noraman SCRF=(Solvent=Wat
 er)
 ----------------------------------------------------------------------

 ---------------------------
 D_1a_4a_L_PSI.inp_extract_1
 ---------------------------
 Symbolic Z-matrix:
 Charge =  0 Multiplicity = 1

 SCF Done:  E(RM062X) =  -617.488110600     A.U. after   12 cycles
 SCF Done:  E(RM062X) =  -617.487337955     A.U. after   11 cycles
 SCF Done:  E(RM062X) =  -617.489440408     A.U. after   11 cycles
 SCF Done:  E(RM062X) =  -617.489804485     A.U. after   10 cycles
 SCF Done:  E(RM062X) =  -617.490476915     A.U. after   10 cycles
 SCF Done:  E(RM062X) =  -617.490510707     A.U. after    9 cycles
 SCF Done:  E(RM062X) =  -617.490513841     A.U. after    8 cycles
 SCF Done:  E(RM062X) =  -617.490514903     A.U. after    8 cycles
 SCF Done:  E(RM062X) =  -617.490515288     A.U. after    7 cycles
 SCF Done:  E(RM062X) =  -617.490515474     A.U. after    7 cycles
 Optimization completed.
    -- Stationary point found.
 Normal termination of Gaussian 16 at Mon Nov  5 04:38:52 2018.

 ----------------------------------------------------------------------
 #N Geom=AllCheck Guess=TCheck SCRF=Check GenChk RM062X/6-311++G(2d,2p)
  Freq
 ----------------------------------------------------------------------

 Structure from the checkpoint file:  "D_1a_4a_L_PSI.inp_extract_1.chk"
 ---------------------------
 D_1a_4a_L_PSI.inp_extract_1
 ---------------------------
 Charge =  0 Multiplicity = 1

                         Standard orientation:
 ---------------------------------------------------------------------
 Center     Atomic      Atomic             Coordinates (Angstroms)
 Number     Number       Type             X           Y           Z
 ---------------------------------------------------------------------
      1          6           0        3.209748    0.216773   -0.813719
      2          6           0        1.117622   -0.197953    1.169340
      3          6           0       -1.295106    1.166068   -0.614379
      4          6           0        2.180984    1.325590   -0.595887
      5          6           0       -3.481455    0.199119    0.084239
      6          8           0       -2.891117   -1.091676    0.152227
      7          6           0        2.607928   -1.134934   -0.469400
      8          6           0       -0.714062   -0.248189   -0.558926
      9          6           0       -2.461558    1.292652    0.363449
     10          6           0       -1.843696   -1.245265   -0.786687
     11          8           0        2.102675   -1.164287    0.864310
     12          8           0       -0.151040   -0.602942    0.704419
     13          6           0        1.604742    1.204455    0.814892
     14          1           0        4.074629    0.389085   -0.168963
     15          1           0        3.562999    0.203720   -1.844886
     16          1           0       -1.659093    1.319016   -1.634452
     17          1           0        2.644735    2.304354   -0.715678
     18          1           0        1.398481    1.255855   -1.352486
     19          1           0        1.814974   -1.400483   -1.173405
     20          1           0        3.360150   -1.919860   -0.512160
     21          1           0       -2.100102    1.194558    1.388514
     22          1           0       -2.939901    2.267673    0.269910
     23          1           0       -2.230431   -1.114048   -1.804312
     24          1           0       -1.470417   -2.261128   -0.676545
     25          1           0        2.408011    1.412602    1.525165
     26          1           0        0.818153    1.927682    1.017159
     27          1           0        1.016701   -0.266147    2.251234
     28          1           0       -3.917755    0.343241   -0.912628
     29          1           0       -4.286255    0.205665    0.816274
     30          1           0       -0.541713    1.926468   -0.436878
     31          1           0        0.011796   -0.386906   -1.361042
 ---------------------------------------------------------------------

 SCF Done:  E(RM062X) =  -617.490515474     A.U. after    1 cycles

 The electronic state is 1-A.
 Alpha  occ. eigenvalues --  -19.62917 -19.62868 -19.62844 -10.63832 -10.59183
 Alpha  occ. eigenvalues --  -10.58126 -10.58036 -10.57933 -10.53558 -10.53455
 Alpha  occ. eigenvalues --  -10.53303 -10.53127 -10.53004  -1.19377  -1.16480
 Alpha  occ. eigenvalues --   -1.13075  -0.90644  -0.90396  -0.87666  -0.84871
 Alpha  occ. eigenvalues --   -0.74989  -0.74124  -0.73494  -0.71221  -0.66809
 Alpha  occ. eigenvalues --   -0.62736  -0.59641  -0.58100  -0.57103  -0.55499
 Alpha  occ. eigenvalues --   -0.54642  -0.53624  -0.52686  -0.50867  -0.50193
 Alpha  occ. eigenvalues --   -0.48994  -0.47209  -0.46332  -0.45928  -0.45167
 Alpha  occ. eigenvalues --   -0.43712  -0.42231  -0.40893  -0.40419  -0.39119
 Alpha  occ. eigenvalues --   -0.38627  -0.37827  -0.36663  -0.34405  -0.32999
 Alpha  occ. eigenvalues --   -0.32153
 Alpha virt. eigenvalues --   -0.00221   0.00685   0.00879   0.01197   0.02316
 Alpha virt. eigenvalues --    0.02546   0.02810   0.03176   0.03564   0.04679
 Alpha virt. eigenvalues --    0.04867   0.05032   0.05748   0.06108   0.07312

 Mulliken charges:
               1
     1  C   -0.320442
     2  C   -0.103294
     3  C   -0.369929
     4  C   -0.362738
     5  C   -0.237103
     6  O   -0.305800
     7  C   -0.250630
     8  C    0.125984
     9  C   -0.282683
    10  C   -0.528613
    11  O   -0.271465
    12  O   -0.322005
    13  C   -0.313337
    14  H    0.173157
    15  H    0.174286
    16  H    0.251435
    17  H    0.212341
    18  H    0.196318
    19  H    0.133001
    20  H    0.218457
    21  H    0.167076
    22  H    0.182433
    23  H    0.196825
    24  H    0.199825
    25  H    0.237032
    26  H    0.204280
    27  H    0.251259
    28  H    0.142614
    29  H    0.200821
    30  H    0.157400
    31  H    0.243497
 Sum of Mulliken charges =   0.00000

 Dipole moment (field-independent basis, Debye):
    X=              1.1326    Y=              4.2052    Z=             -3.5321  Tot=              5.6073
 Quadrupole moment (field-independent basis, Debye-Ang):
   XX=            -78.8765   YY=            -82.6451   ZZ=            -78.5492
   XY=             -3.4592   XZ=             -0.2577   YZ=              5.8677

  Exact polarizability: 172.256  -3.327 156.509  -1.873   2.475 154.834
 Approx polarizability: 146.312  -2.564 140.943  -0.292   0.291 145.274

                      1                      2                      3
                      A                      A                      A
 Frequencies --     42.7921                50.5919               112.2271
 Red. masses --      4.1761                 3.6506                 3.7030
 Frc consts  --      0.0045                 0.0055                 0.0275
 IR Inten    --      2.8063                 1.0500                 1.1176

                      4                      5                      6
                      A                      A                      A
 Frequencies --    140.9382               182.3841               212.8757
 Red. masses --      4.4352                 3.8699                 2.8036
 Frc consts  --      0.0519                 0.0758                 0.0749
 IR Inten    --      0.6362                12.8561                 0.6628

                      7                      8                      9
                      A                      A                      A
 Frequencies --    278.9813               295.5979               331.0054
 Red. masses --      2.6849                 2.2811                 2.3151
 Frc consts  --      0.1231                 0.1174                 0.1495
 IR Inten    --      3.5493                 0.9463                 1.7914

                     10                     11                     12
                      A                      A                      A
 Frequencies --    350.5703               421.1829               440.8380
 Red. masses --      1.8160                 2.1941                 3.2391
 Frc consts  --      0.1315                 0.2293                 0.3709
 IR Inten    --      0.6157                13.0159                 2.7775

                     13                     14                     15
                      A                      A                      A
 Frequencies --    457.7987               481.8656               520.7299
 Red. masses --      2.8752                 4.0972                 2.5103
 Frc consts  --      0.3550                 0.5605                 0.4010
 IR Inten    --      2.9496                 2.4635                 3.0797

                     16                     17                     18
                      A                      A                      A
 Frequencies --    547.1026               561.8587               673.2548
 Red. masses --      3.1799                 1.9193                 2.5739
 Frc consts  --      0.5608                 0.3570                 0.6874
 IR Inten    --     26.3501                 0.7623                 2.2736

                     19                     20                     21
                      A                      A                      A
 Frequencies --    759.9074               799.0343               835.8872
 Red. masses --      2.7743                 2.4946                 1.9794
 Frc consts  --      0.9439                 0.9384                 0.8148
 IR Inten    --      7.8993                 4.1576                14.3829

                     22                     23                     24
                      A                      A                      A
 Frequencies --    846.9340               860.1495               878.6405
 Red. masses --      3.4532                 2.2222                 1.5740
 Frc consts  --      1.4594                 0.9687                 0.7159
 IR Inten    --      5.5678                 1.9338                14.4387

                     25                     26                     27
                      A                      A                      A
 Frequencies --    891.0066               895.7365               915.2022
 Red. masses --      2.4508                 2.5358                 2.5370
 Frc consts  --      1.1464                 1.1987                 1.2520
 IR Inten    --     54.1101                19.7557                34.3429

                     28                     29                     30
                      A                      A                      A
 Frequencies --    928.0392               942.3834               986.0979
 Red. masses --      2.0685                 1.5236                 1.9841
 Frc consts  --      1.0496                 0.7972                 1.1367
 IR Inten    --     31.7196                 8.8455                22.5591

                     31                     32                     33
                      A                      A                      A
 Frequencies --   1025.8582              1043.8780              1051.8885
 Red. masses --      1.9928                 2.2277                 2.1638
 Frc consts  --      1.2356                 1.4302                 1.4106
 IR Inten    --     91.6659                43.8132               169.5217

                     34                     35                     36
                      A                      A                      A
 Frequencies --   1065.4736              1071.5094              1077.8933
 Red. masses --      1.9673                 1.9621                 1.8670
 Frc consts  --      1.3158                 1.3273                 1.2781
 IR Inten    --     62.2322                40.3463                94.5472

                     37                     38                     39
                      A                      A                      A
 Frequencies --   1101.3819              1147.3821              1150.0931
 Red. masses --      1.5838                 2.4192                 2.5610
 Frc consts  --      1.1319                 1.8764                 1.9959
 IR Inten    --     18.6436                 5.1371               176.1964

                     40                     41                     42
                      A                      A                      A
 Frequencies --   1160.3839              1191.9455              1218.8404
 Red. masses --      2.3550                 3.2837                 1.4680
 Frc consts  --      1.8683                 2.7487                 1.2849
 IR Inten    --     20.8961               177.1193                64.8175

                     43                     44                     45
                      A                      A                      A
 Frequencies --   1225.7715              1235.6444              1247.0015
 Red. masses --      1.3884                 1.6775                 1.8636
 Frc consts  --      1.2291                 1.5090                 1.7074
 IR Inten    --     35.0920                39.0752                73.0005

                     46                     47                     48
                      A                      A                      A
 Frequencies --   1296.8245              1300.3419              1316.2184
 Red. masses --      1.1614                 1.1912                 1.1746
 Frc consts  --      1.1508                 1.1867                 1.1990
 IR Inten    --      7.4795                42.6245                11.4566

                     49                     50                     51
                      A                      A                      A
 Frequencies --   1338.9126              1359.1024              1362.9455
 Red. masses --      1.2324                 1.4596                 1.3969
 Frc consts  --      1.3017                 1.5885                 1.5289
 IR Inten    --     11.0083                 5.9712                 9.9126

                     52                     53                     54
                      A                      A                      A
 Frequencies --   1367.5014              1377.3685              1391.1644
 Red. masses --      1.3247                 1.4893                 1.4340
 Frc consts  --      1.4595                 1.6647                 1.6352
 IR Inten    --      4.6580                14.9179                 3.0193

                     55                     56                     57
                      A                      A                      A
 Frequencies --   1393.1053              1400.9579              1403.9739
 Red. masses --      1.6568                 1.3493                 1.3661
 Frc consts  --      1.8945                 1.5603                 1.5865
 IR Inten    --      9.2751                 5.3029                 2.4118

                     58                     59                     60
                      A                      A                      A
 Frequencies --   1408.5928              1424.3402              1430.6128
 Red. masses --      1.4033                 1.3664                 1.3683
 Frc consts  --      1.6404                 1.6332                 1.6499
 IR Inten    --     15.2639                30.6109                 3.5916

                     61                     62                     63
                      A                      A                      A
 Frequencies --   1444.0935              1473.8597              1477.9363
 Red. masses --      1.2032                 1.0961                 1.1045
 Frc consts  --      1.4784                 1.4028                 1.4214
 IR Inten    --      0.5726                11.6496                 2.2974

                     64                     65                     66
                      A                      A                      A
 Frequencies --   1484.1158              1491.0799              1505.0224
 Red. masses --      1.0998                 1.0884                 1.0912
 Frc consts  --      1.4272                 1.4257                 1.4562
 IR Inten    --      7.9795                 8.6660                 5.9870

                     67                     68                     69
                      A                      A                      A
 Frequencies --   1509.1653              1517.9443              1524.0648
 Red. masses --      1.1028                 1.0928                 1.0915
 Frc consts  --      1.4799                 1.4836                 1.4937
 IR Inten    --     14.4821                16.3710                 6.5168

                     70                     71                     72
                      A                      A                      A
 Frequencies --   3011.6421              3029.0344              3057.8914
 Red. masses --      1.0709                 1.0693                 1.0707
 Frc consts  --      5.7225                 5.7804                 5.8989
 IR Inten    --     78.0525                65.8372                28.2082

                     73                     74                     75
                      A                      A                      A
 Frequencies --   3064.0766              3066.8900              3074.3883
 Red. masses --      1.0727                 1.0633                 1.0707
 Frc consts  --      5.9336                 5.8923                 5.9628
 IR Inten    --     25.8756                46.9485                16.1657

                     76                     77                     78
                      A                      A                      A
 Frequencies --   3078.4487              3084.2495              3099.8713
 Red. masses --      1.0607                 1.0618                 1.0811
 Frc consts  --      5.9224                 5.9510                 6.1209
 IR Inten    --     33.9799                29.0125                89.7112

                     79                     80                     81
                      A                      A                      A
 Frequencies --   3110.4021              3116.9230              3123.4057
 Red. masses --      1.0875                 1.0984                 1.1023
 Frc consts  --      6.1989                 6.2872                 6.3357
 IR Inten    --     49.9696                19.7476                44.2488

                     82                     83                     84
                      A                      A                      A
 Frequencies --   3125.2741              3130.9495              3131.5781
 Red. masses --      1.1001                 1.1005                 1.0946
 Frc consts  --      6.3306                 6.3560                 6.3246
 IR Inten    --     70.7154                58.9326                51.6876

                     85                     86                     87
                      A                      A                      A
 Frequencies --   3138.8913              3140.6672              3175.1656
 Red. masses --      1.0952                 1.0953                 1.0881
 Frc consts  --      6.3574                 6.3656                 6.4631
 IR Inten    --     27.0687                46.8903                25.2493

 - Thermochemistry -
 -------------------
 Temperature   298.150 Kelvin.  Pressure   1.00000 Atm.
 Atom     1 has atomic number  6 and mass  12.00000

 Molecular mass:   186.12559 amu.
 Principal axes and moments of inertia in atomic units:
                           1         2         3
     Eigenvalues --  1069.888223645.249433969.72839
           X            0.99998  -0.00363  -0.00488
           Y            0.00391   0.99828   0.05845
           Z            0.00466  -0.05847   0.99828
 This molecule is an asymmetric top.
 Rotational symmetry number  1.
 Warning -- assumption of classical behavior for rotation
           may cause significant error
 Rotational temperatures (Kelvin)      0.08096     0.02376     0.02182
 Rotational constants (GHZ):           1.68685     0.49509     0.45463
 Zero-point vibrational energy     738188.9 (Joules/Mol)
                                  176.43139 (Kcal/Mol)
 Warning -- explicit consideration of  17 degrees of freedom as
           vibrations may cause significant error
 Vibrational temperatures:     61.57    72.79   161.47   202.78   262.41
          (Kelvin)            306.28   401.39   425.30   476.24   504.39
                              605.99   634.27   658.67   693.30   749.21
                              787.16   808.39   968.66  1093.34  1149.63
                             1202.66  1218.55  1237.56  1264.17  1281.96
                             1288.77  1316.77  1335.24  1355.88  1418.77
                             1475.98  1501.91  1513.43  1532.98  1541.66
                             1550.85  1584.64  1650.83  1654.73  1669.53
                             1714.94  1753.64  1763.61  1777.82  1794.16
                             1865.84  1870.90  1893.74  1926.40  1955.45
                             1960.97  1967.53  1981.73  2001.58  2004.37
                             2015.67  2020.01  2026.65  2049.31  2058.33
                             2077.73  2120.56  2126.42  2135.31  2145.33
                             2165.39  2171.35  2183.98  2192.79  4333.08
                             4358.10  4399.62  4408.52  4412.57  4423.36
                             4429.20  4437.55  4460.02  4475.17  4484.56
                             4493.88  4496.57  4504.74  4505.64  4516.16
                             4518.72  4568.36

 Zero-point correction=                           0.281161 (Hartree/Particle)
 Thermal correction to Energy=                    0.292791
 Thermal correction to Enthalpy=                  0.293735
 Thermal correction to Gibbs Free Energy=         0.243037
 Sum of electronic and zero-point Energies=           -617.209354
 Sum of electronic and thermal Energies=              -617.197725
 Sum of electronic and thermal Enthalpies=            -617.196781
 Sum of electronic and thermal Free Energies=         -617.247479

                     E (Thermal)             CV                S
                      KCal/Mol        Cal/Mol-Kelvin    Cal/Mol-Kelvin
 Total                  183.729             46.575            106.703
 Electronic               0.000              0.000              0.000
 Translational            0.889              2.981             41.570
 Rotational               0.889              2.981             31.116
 Vibrational            181.952             40.613             34.018
 Vibration     1          0.595              1.980              5.125
 Vibration     2          0.595              1.977              4.794
 Vibration     3          0.607              1.939              3.230
 Vibration     4          0.615              1.912              2.791
 Vibration     5          0.630              1.864              2.304
 Vibration     6          0.644              1.821              2.019
 Vibration     7          0.679              1.712              1.540
 Vibration     8          0.690              1.682              1.442
 Vibration     9          0.713              1.614              1.255
 Vibration    10          0.727              1.574              1.164
 Vibration    11          0.784              1.424              0.888
 Vibration    12          0.801              1.381              0.824
 Vibration    13          0.816              1.344              0.773
 Vibration    14          0.838              1.290              0.705
 Vibration    15          0.876              1.204              0.608
 Vibration    16          0.902              1.146              0.550
 Vibration    17          0.918              1.114              0.520

 Optimization completed.
    -- Stationary point found.
 Normal termination of Gaussian 16 at Mon Nov  5 05:36:07 2018.
