 Gaussian 16, Revision A.03,
 Gaussian 16:  ES64L-G16RevA.03 25-Dec-2016

 ----------------------------------------------------------------------
 #M062X/6-311++G(2d,2p) opt=ModRedundant freq=noraman SCRF=(Solvent=Wat
 er)
 ----------------------------------------------------------------------

 ----------------------------
 D_1a_4a_L_PSI.inp_extract_11
 ----------------------------
 Symbolic Z-matrix:
 Charge =  0 Multiplicity = 1

 SCF Done:  E(RM062X) =  -617.494170837     A.U. after   13 cycles
 SCF Done:  E(RM062X) =  -617.495342948     A.U. after   12 cycles
 SCF Done:  E(RM062X) =  -617.495910322     A.U. after   11 cycles
 SCF Done:  E(RM062X) =  -617.496225453     A.U. after   10 cycles
 SCF Done:  E(RM062X) =  -617.496278060     A.U. after    9 cycles
 SCF Done:  E(RM062X) =  -617.496282227     A.U. after    8 cycles
 SCF Done:  E(RM062X) =  -617.496282807     A.U. after    8 cycles
 SCF Done:  E(RM062X) =  -617.496282959     A.U. after    7 cycles
 Optimization completed.
    -- Stationary point found.
 Normal termination of Gaussian 16 at Mon Nov  5 04:30:05 2018.

 ----------------------------------------------------------------------
 #N Geom=AllCheck Guess=TCheck SCRF=Check GenChk RM062X/6-311++G(2d,2p)
  Freq
 ----------------------------------------------------------------------

 Structure from the checkpoint file:  "D_1a_4a_L_PSI.inp_extract_11.chk"
 ----------------------------
 D_1a_4a_L_PSI.inp_extract_11
 ----------------------------
 Charge =  0 Multiplicity = 1

                         Standard orientation:
 ---------------------------------------------------------------------
 Center     Atomic      Atomic             Coordinates (Angstroms)
 Number     Number       Type             X           Y           Z
 ---------------------------------------------------------------------
      1          6           0       -3.407264   -0.498089   -0.074875
      2          6           0       -0.681045    0.357011   -0.447840
      3          6           0        2.122151    1.311479    0.610769
      4          6           0       -3.046948    0.972343    0.130662
      5          6           0        3.030261   -0.529821   -0.818553
      6          8           0        1.909911   -1.324271   -0.458238
      7          6           0       -2.187882   -1.366978    0.187582
      8          6           0        1.119202    0.308299    1.201847
      9          6           0        2.680404    0.947865   -0.769118
     10          6           0        1.548035   -1.124339    0.896706
     11          8           0       -1.084665   -0.985830   -0.632013
     12          8           0       -0.241611    0.577958    0.868906
     13          6           0       -1.828386    1.317653   -0.723946
     14          1           0       -3.742079   -0.655531   -1.103163
     15          1           0       -4.217724   -0.802942    0.588059
     16          1           0        2.961481    1.352795    1.309682
     17          1           0       -3.885092    1.617824   -0.130123
     18          1           0       -2.816566    1.147516    1.183461
     19          1           0       -1.897633   -1.301124    1.240155
     20          1           0       -2.382787   -2.410847   -0.049408
     21          1           0        1.970558    1.175589   -1.563460
     22          1           0        3.574841    1.539058   -0.968820
     23          1           0        2.403072   -1.370792    1.538326
     24          1           0        0.732378   -1.810354    1.113154
     25          1           0       -2.084853    1.231583   -1.781694
     26          1           0       -1.484683    2.335589   -0.543323
     27          1           0        0.130110    0.496209   -1.156116
     28          1           0        3.862096   -0.745895   -0.136108
     29          1           0        3.320238   -0.837649   -1.820987
     30          1           0        1.667252    2.302240    0.605811
     31          1           0        1.129138    0.421344    2.285920
 ---------------------------------------------------------------------

 SCF Done:  E(RM062X) =  -617.496282959     A.U. after    1 cycles

 The electronic state is 1-A.
 Alpha  occ. eigenvalues --  -19.62763 -19.62746 -19.62358 -10.62999 -10.58971
 Alpha  occ. eigenvalues --  -10.57941 -10.57912 -10.57465 -10.53461 -10.53166
 Alpha  occ. eigenvalues --  -10.52865 -10.52811 -10.52709  -1.19497  -1.16254
 Alpha  occ. eigenvalues --   -1.12904  -0.90547  -0.89466  -0.87270  -0.84431
 Alpha  occ. eigenvalues --   -0.74845  -0.74154  -0.72865  -0.70949  -0.66273
 Alpha  occ. eigenvalues --   -0.62508  -0.59431  -0.58463  -0.56410  -0.55444
 Alpha  occ. eigenvalues --   -0.54271  -0.53324  -0.52022  -0.50511  -0.49518
 Alpha  occ. eigenvalues --   -0.48791  -0.46435  -0.45718  -0.45332  -0.44950
 Alpha  occ. eigenvalues --   -0.43351  -0.42575  -0.42046  -0.39995  -0.39407
 Alpha  occ. eigenvalues --   -0.38270  -0.37248  -0.36122  -0.34699  -0.32812
 Alpha  occ. eigenvalues --   -0.31423
 Alpha virt. eigenvalues --   -0.00185   0.00722   0.00881   0.01209   0.02306
 Alpha virt. eigenvalues --    0.02539   0.02644   0.03242   0.03425   0.04606
 Alpha virt. eigenvalues --    0.04810   0.05077   0.05491   0.05692   0.07285

 Mulliken charges:
               1
     1  C   -0.418925
     2  C   -0.306659
     3  C   -0.514196
     4  C   -0.288737
     5  C   -0.181812
     6  O   -0.262237
     7  C   -0.082350
     8  C    0.188397
     9  C   -0.265881
    10  C   -0.396857
    11  O   -0.230976
    12  O   -0.298835
    13  C   -0.424585
    14  H    0.160575
    15  H    0.171015
    16  H    0.215851
    17  H    0.187121
    18  H    0.177678
    19  H    0.137236
    20  H    0.203439
    21  H    0.138548
    22  H    0.189939
    23  H    0.194849
    24  H    0.193653
    25  H    0.185172
    26  H    0.171288
    27  H    0.382273
    28  H    0.155098
    29  H    0.199348
    30  H    0.173463
    31  H    0.247104
 Sum of Mulliken charges =  -0.00000

 Dipole moment (field-independent basis, Debye):
    X=              1.1395    Y=              2.1186    Z=              1.2111  Tot=              2.6933
 Quadrupole moment (field-independent basis, Debye-Ang):
   XX=            -68.4278   YY=            -82.6521   ZZ=            -79.1567
   XY=              3.7397   XZ=              1.4119   YZ=             -5.2536

  Exact polarizability: 171.387   3.215 157.736  -1.372  -2.489 154.158
 Approx polarizability: 145.897   2.622 140.858  -0.362  -0.252 144.587

                      1                      2                      3
                      A                      A                      A
 Frequencies --     29.6881                59.7518                98.6366
 Red. masses --      3.5138                 3.8474                 3.5745
 Frc consts  --      0.0018                 0.0081                 0.0205
 IR Inten    --      0.0862                 3.8800                 2.8209

                      4                      5                      6
                      A                      A                      A
 Frequencies --    135.2063               191.0255               208.3413
 Red. masses --      3.8623                 3.2128                 3.0676
 Frc consts  --      0.0416                 0.0691                 0.0785
 IR Inten    --      2.3690                 0.5168                 1.8407

                      7                      8                      9
                      A                      A                      A
 Frequencies --    242.9814               302.7728               325.8341
 Red. masses --      2.5283                 2.0555                 2.3768
 Frc consts  --      0.0879                 0.1110                 0.1487
 IR Inten    --      9.8246                 4.0375                 5.2252

                     10                     11                     12
                      A                      A                      A
 Frequencies --    393.2067               403.1472               422.7488
 Red. masses --      2.2452                 2.6433                 2.5475
 Frc consts  --      0.2045                 0.2531                 0.2682
 IR Inten    --      9.2740                 1.3945                 3.9483

                     13                     14                     15
                      A                      A                      A
 Frequencies --    446.5465               484.0715               519.8939
 Red. masses --      2.7458                 4.0758                 2.6216
 Frc consts  --      0.3226                 0.5627                 0.4175
 IR Inten    --     12.9162                 7.9433                 1.7902

                     16                     17                     18
                      A                      A                      A
 Frequencies --    533.4731               581.4548               671.7992
 Red. masses --      1.9692                 3.0717                 2.9121
 Frc consts  --      0.3302                 0.6119                 0.7744
 IR Inten    --      9.0557                16.9901                 2.5890

                     19                     20                     21
                      A                      A                      A
 Frequencies --    760.7594               792.7436               836.1277
 Red. masses --      2.2770                 3.0608                 1.5893
 Frc consts  --      0.7764                 1.1333                 0.6546
 IR Inten    --      5.5633                 0.8200                 7.5619

                     22                     23                     24
                      A                      A                      A
 Frequencies --    846.1408               848.9067               880.4858
 Red. masses --      2.6961                 2.0397                 2.4906
 Frc consts  --      1.1373                 0.8660                 1.1376
 IR Inten    --      5.3636                10.8609                12.4674

                     25                     26                     27
                      A                      A                      A
 Frequencies --    895.7719               901.8220               910.0558
 Red. masses --      2.4410                 2.4688                 2.5019
 Frc consts  --      1.1540                 1.1830                 1.2208
 IR Inten    --     35.1661                12.9451                43.6789

                     28                     29                     30
                      A                      A                      A
 Frequencies --    925.8911               964.4029               981.2933
 Red. masses --      1.8077                 1.8373                 1.8837
 Frc consts  --      0.9131                 1.0068                 1.0687
 IR Inten    --     23.4635                23.4377                50.4784

                     31                     32                     33
                      A                      A                      A
 Frequencies --   1031.9920              1040.1059              1061.0729
 Red. masses --      2.2206                 1.9980                 1.8066
 Frc consts  --      1.3934                 1.2735                 1.1984
 IR Inten    --     14.3235                 4.9569               182.0548

                     34                     35                     36
                      A                      A                      A
 Frequencies --   1067.9520              1069.1234              1076.4364
 Red. masses --      1.7156                 2.1316                 2.3990
 Frc consts  --      1.1528                 1.4356                 1.6378
 IR Inten    --      2.5568               107.6797               140.5272

                     37                     38                     39
                      A                      A                      A
 Frequencies --   1107.0575              1145.8742              1157.8926
 Red. masses --      1.5840                 3.0391                 2.2245
 Frc consts  --      1.1438                 2.3511                 1.7572
 IR Inten    --     23.3010               124.2549                22.6514

                     40                     41                     42
                      A                      A                      A
 Frequencies --   1161.4698              1195.5884              1208.7440
 Red. masses --      3.1750                 3.1211                 1.4191
 Frc consts  --      2.5236                 2.6286                 1.2216
 IR Inten    --     93.1053               135.5192                15.0648

                     43                     44                     45
                      A                      A                      A
 Frequencies --   1229.7880              1233.7512              1244.6413
 Red. masses --      1.2961                 1.6419                 1.8601
 Frc consts  --      1.1550                 1.4725                 1.6977
 IR Inten    --     22.4660                52.4981                58.1931

                     46                     47                     48
                      A                      A                      A
 Frequencies --   1285.9023              1319.4120              1322.5146
 Red. masses --      1.2156                 1.1476                 1.2212
 Frc consts  --      1.1843                 1.1771                 1.2584
 IR Inten    --     16.1183                 6.8289                31.7649

                     49                     50                     51
                      A                      A                      A
 Frequencies --   1343.2207              1354.8257              1356.7978
 Red. masses --      1.3405                 1.3444                 1.4182
 Frc consts  --      1.4250                 1.4539                 1.5382
 IR Inten    --     40.6625                 4.2240                 3.1039

                     52                     53                     54
                      A                      A                      A
 Frequencies --   1372.2842              1383.9164              1387.3759
 Red. masses --      1.3109                 1.4878                 1.5320
 Frc consts  --      1.4545                 1.6788                 1.7374
 IR Inten    --      8.0107                 5.2171                13.5830

                     55                     56                     57
                      A                      A                      A
 Frequencies --   1391.3203              1394.4069              1402.8935
 Red. masses --      1.5814                 1.3817                 1.3420
 Frc consts  --      1.8037                 1.5829                 1.5561
 IR Inten    --      2.2124                 2.0276                 7.5476

                     58                     59                     60
                      A                      A                      A
 Frequencies --   1410.4278              1425.1310              1429.9940
 Red. masses --      1.3298                 1.2539                 1.3516
 Frc consts  --      1.5586                 1.5004                 1.6285
 IR Inten    --     17.7785                 6.5536                11.0718

                     61                     62                     63
                      A                      A                      A
 Frequencies --   1432.3685              1473.7266              1476.0828
 Red. masses --      1.3397                 1.0970                 1.1049
 Frc consts  --      1.6195                 1.4038                 1.4184
 IR Inten    --     22.2530                12.6865                 3.4105

                     64                     65                     66
                      A                      A                      A
 Frequencies --   1481.0059              1482.3627              1495.5127
 Red. masses --      1.0883                 1.0859                 1.1057
 Frc consts  --      1.4064                 1.4058                 1.4570
 IR Inten    --      7.5596                 8.5291                12.0491

                     67                     68                     69
                      A                      A                      A
 Frequencies --   1503.2775              1509.8481              1511.8076
 Red. masses --      1.0944                 1.0938                 1.1013
 Frc consts  --      1.4572                 1.4691                 1.4830
 IR Inten    --     10.6849                 3.4226                 6.1969

                     70                     71                     72
                      A                      A                      A
 Frequencies --   3014.5658              3019.4541              3051.9737
 Red. masses --      1.0706                 1.0705                 1.0688
 Frc consts  --      5.7325                 5.7501                 5.8657
 IR Inten    --     62.3424                91.3372                48.5654

                     73                     74                     75
                      A                      A                      A
 Frequencies --   3061.0370              3062.0661              3071.7462
 Red. masses --      1.0657                 1.0626                 1.0632
 Frc consts  --      5.8832                 5.8702                 5.9109
 IR Inten    --     22.0465                42.4122                28.2531

                     76                     77                     78
                      A                      A                      A
 Frequencies --   3075.6232              3084.3364              3099.2064
 Red. masses --      1.0616                 1.0620                 1.0856
 Frc consts  --      5.9169                 5.9522                 6.1434
 IR Inten    --     37.2170                21.7777                56.2303

                     79                     80                     81
                      A                      A                      A
 Frequencies --   3110.7066              3111.6744              3117.6691
 Red. masses --      1.0987                 1.0979                 1.1023
 Frc consts  --      6.2638                 6.2631                 6.3125
 IR Inten    --     28.8013                48.3885                63.5362

                     82                     83                     84
                      A                      A                      A
 Frequencies --   3123.2415              3127.4902              3130.8766
 Red. masses --      1.1007                 1.1033                 1.0983
 Frc consts  --      6.3259                 6.3583                 6.3433
 IR Inten    --     67.9667                42.3081                52.8525

                     85                     86                     87
                      A                      A                      A
 Frequencies --   3132.1984              3143.7905              3169.5381
 Red. masses --      1.0961                 1.0937                 1.0850
 Frc consts  --      6.3356                 6.3687                 6.4222
 IR Inten    --     43.1153                26.0128                34.8005

 - Thermochemistry -
 -------------------
 Temperature   298.150 Kelvin.  Pressure   1.00000 Atm.
 Atom     1 has atomic number  6 and mass  12.00000

 Molecular mass:   186.12559 amu.
 Principal axes and moments of inertia in atomic units:
                           1         2         3
     Eigenvalues --  1076.754013443.432333772.99905
           X            0.99998   0.00656  -0.00060
           Y           -0.00658   0.99802  -0.06258
           Z            0.00019   0.06258   0.99804
 This molecule is an asymmetric top.
 Rotational symmetry number  1.
 Warning -- assumption of classical behavior for rotation
           may cause significant error
 Rotational temperatures (Kelvin)      0.08044     0.02515     0.02296
 Rotational constants (GHZ):           1.67609     0.52411     0.47833
 Zero-point vibrational energy     737378.6 (Joules/Mol)
                                  176.23772 (Kcal/Mol)
 Warning -- explicit consideration of  17 degrees of freedom as
           vibrations may cause significant error
 Vibrational temperatures:     42.71    85.97   141.92   194.53   274.84
          (Kelvin)            299.76   349.60   435.62   468.80   565.74
                              580.04   608.24   642.48   696.47   748.01
                              767.55   836.58   966.57  1094.56  1140.58
                             1203.00  1217.41  1221.39  1266.82  1288.82
                             1297.52  1309.37  1332.15  1387.56  1411.86
                             1484.81  1496.48  1526.65  1536.54  1538.23
                             1548.75  1592.81  1648.66  1665.95  1671.10
                             1720.19  1739.11  1769.39  1775.09  1790.76
                             1850.13  1898.34  1902.80  1932.60  1949.29
                             1952.13  1974.41  1991.15  1996.12  2001.80
                             2006.24  2018.45  2029.29  2050.45  2057.44
                             2060.86  2120.36  2123.75  2130.84  2132.79
                             2151.71  2162.88  2172.33  2175.15  4337.29
                             4344.32  4391.11  4404.15  4405.63  4419.56
                             4425.14  4437.67  4459.07  4475.61  4477.01
                             4485.63  4493.65  4499.76  4504.63  4506.53
                             4523.21  4560.26

 Zero-point correction=                           0.280853 (Hartree/Particle)
 Thermal correction to Energy=                    0.292560
 Thermal correction to Enthalpy=                  0.293505
 Thermal correction to Gibbs Free Energy=         0.242439
 Sum of electronic and zero-point Energies=           -617.215430
 Sum of electronic and thermal Energies=              -617.203723
 Sum of electronic and thermal Enthalpies=            -617.202778
 Sum of electronic and thermal Free Energies=         -617.253844

                     E (Thermal)             CV                S
                      KCal/Mol        Cal/Mol-Kelvin    Cal/Mol-Kelvin
 Total                  183.584             46.640            107.476
 Electronic               0.000              0.000              0.000
 Translational            0.889              2.981             41.570
 Rotational               0.889              2.981             31.015
 Vibrational            181.807             40.678             34.891
 Vibration     1          0.593              1.984              5.850
 Vibration     2          0.597              1.973              4.465
 Vibration     3          0.604              1.950              3.481
 Vibration     4          0.613              1.918              2.871
 Vibration     5          0.634              1.852              2.218
 Vibration     6          0.642              1.828              2.058
 Vibration     7          0.659              1.774              1.781
 Vibration     8          0.694              1.668              1.402
 Vibration     9          0.710              1.624              1.281
 Vibration    10          0.760              1.485              0.988
 Vibration    11          0.769              1.463              0.951
 Vibration    12          0.785              1.421              0.883
 Vibration    13          0.806              1.369              0.806
 Vibration    14          0.840              1.285              0.699
 Vibration    15          0.875              1.206              0.610
 Vibration    16          0.888              1.176              0.579
 Vibration    17          0.938              1.071              0.483

 Optimization completed.
    -- Stationary point found.
 Normal termination of Gaussian 16 at Mon Nov  5 05:24:11 2018.
