 Gaussian 16, Revision A.03,
 Gaussian 16:  ES64L-G16RevA.03 25-Dec-2016

 ----------------------------------------------------------------------
 #M062X/6-311++G(2d,2p) opt=ModRedundant freq=noraman SCRF=(Solvent=Wat
 er)
 ----------------------------------------------------------------------

 ----------------------------
 D_1a_4a_L_PSI.inp_extract_26
 ----------------------------
 Symbolic Z-matrix:
 Charge =  0 Multiplicity = 1

 SCF Done:  E(RM062X) =  -617.501272522     A.U. after   13 cycles
 SCF Done:  E(RM062X) =  -617.502989086     A.U. after   11 cycles
 SCF Done:  E(RM062X) =  -617.503347967     A.U. after   11 cycles
 SCF Done:  E(RM062X) =  -617.503465058     A.U. after    9 cycles
 SCF Done:  E(RM062X) =  -617.503477177     A.U. after    9 cycles
 SCF Done:  E(RM062X) =  -617.503479858     A.U. after    8 cycles
 Optimization completed.
    -- Stationary point found.
 Normal termination of Gaussian 16 at Sun Nov  4 21:57:29 2018.

 ----------------------------------------------------------------------
 #N Geom=AllCheck Guess=TCheck SCRF=Check GenChk RM062X/6-311++G(2d,2p)
  Freq
 ----------------------------------------------------------------------

 Structure from the checkpoint file:  "D_1a_4a_L_PSI.inp_extract_26.chk"
 ----------------------------
 D_1a_4a_L_PSI.inp_extract_26
 ----------------------------
 Charge =  0 Multiplicity = 1

                         Standard orientation:
 ---------------------------------------------------------------------
 Center     Atomic      Atomic             Coordinates (Angstroms)
 Number     Number       Type             X           Y           Z
 ---------------------------------------------------------------------
      1          6           0       -3.037821    0.894591   -0.746660
      2          6           0       -1.131580   -0.552255    0.858821
      3          6           0        1.691955    0.282341    1.344683
      4          6           0       -2.858113   -0.605477   -0.969742
      5          6           0        2.966809    0.848174   -0.721542
      6          8           0        2.426186   -0.294261   -1.372347
      7          6           0       -1.746504    1.481519   -0.203216
      8          6           0        1.208592   -0.976220    0.626094
      9          6           0        2.016047    1.382835    0.337992
     10          6           0        2.193773   -1.356713   -0.466187
     11          8           0       -1.341794    0.837416    1.005455
     12          8           0       -0.057879   -0.813687   -0.008514
     13          6           0       -2.374917   -1.250391    0.327545
     14          1           0       -3.842822    1.069569   -0.028826
     15          1           0       -3.302267    1.404071   -1.673775
     16          1           0        2.594243    0.013741    1.900591
     17          1           0       -3.790229   -1.066616   -1.294297
     18          1           0       -2.121037   -0.770593   -1.758582
     19          1           0       -0.952612    1.383495   -0.949160
     20          1           0       -1.854985    2.534361    0.048102
     21          1           0        1.098323    1.725296   -0.141296
     22          1           0        2.471066    2.239448    0.835874
     23          1           0        3.136987   -1.663205    0.001434
     24          1           0        1.802522   -2.187125   -1.050460
     25          1           0       -3.151691   -1.165086    1.090012
     26          1           0       -2.150545   -2.307872    0.194105
     27          1           0       -0.889387   -0.907213    1.863061
     28          1           0        3.927127    0.579776   -0.262810
     29          1           0        3.152287    1.584051   -1.501102
     30          1           0        0.950161    0.616046    2.068491
     31          1           0        1.141310   -1.808320    1.335170
 ---------------------------------------------------------------------

 SCF Done:  E(RM062X) =  -617.503479858     A.U. after    1 cycles

 The electronic state is 1-A.
 Alpha  occ. eigenvalues --  -19.63006 -19.62847 -19.62762 -10.63426 -10.58905
 Alpha  occ. eigenvalues --  -10.58104 -10.57867 -10.57678 -10.53051 -10.53008
 Alpha  occ. eigenvalues --  -10.52966 -10.52812 -10.52803  -1.19855  -1.16411
 Alpha  occ. eigenvalues --   -1.13208  -0.90846  -0.89526  -0.87283  -0.84551
 Alpha  occ. eigenvalues --   -0.74557  -0.73760  -0.72518  -0.71849  -0.66270
 Alpha  occ. eigenvalues --   -0.62476  -0.60085  -0.57974  -0.57349  -0.55361
 Alpha  occ. eigenvalues --   -0.54293  -0.52887  -0.52569  -0.51063  -0.49636
 Alpha  occ. eigenvalues --   -0.47635  -0.46750  -0.46545  -0.45536  -0.45021
 Alpha  occ. eigenvalues --   -0.43579  -0.42796  -0.41293  -0.40080  -0.39432
 Alpha  occ. eigenvalues --   -0.38217  -0.37490  -0.36276  -0.34428  -0.33236
 Alpha  occ. eigenvalues --   -0.32086
 Alpha virt. eigenvalues --   -0.00172   0.00828   0.00890   0.01067   0.02293
 Alpha virt. eigenvalues --    0.02568   0.02771   0.03155   0.03327   0.04768
 Alpha virt. eigenvalues --    0.04874   0.04983   0.05429   0.05968   0.07162

 Mulliken charges:
               1
     1  C   -0.449363
     2  C   -0.052842
     3  C   -0.331217
     4  C   -0.269263
     5  C   -0.250124
     6  O   -0.303670
     7  C   -0.090665
     8  C    0.058471
     9  C   -0.327574
    10  C   -0.355332
    11  O   -0.269587
    12  O   -0.282054
    13  C   -0.467788
    14  H    0.162818
    15  H    0.172929
    16  H    0.237087
    17  H    0.185358
    18  H    0.171664
    19  H    0.155663
    20  H    0.217342
    21  H    0.143457
    22  H    0.176614
    23  H    0.184773
    24  H    0.199229
    25  H    0.193778
    26  H    0.180277
    27  H    0.234895
    28  H    0.150039
    29  H    0.195862
    30  H    0.193439
    31  H    0.235785
 Sum of Mulliken charges =   0.00000

 Dipole moment (field-independent basis, Debye):
    X=             -0.0062    Y=             -0.4565    Z=              1.8019  Tot=              1.8589
 Quadrupole moment (field-independent basis, Debye-Ang):
   XX=            -73.0609   YY=            -75.6741   ZZ=            -84.3265
   XY=              1.4023   XZ=              7.0593   YZ=             -4.9873

  Exact polarizability: 167.729   0.166 163.229   2.023  -3.116 152.903
 Approx polarizability: 144.007  -0.795 144.738   1.137  -1.827 143.027

                      1                      2                      3
                      A                      A                      A
 Frequencies --     45.4310                76.5361                95.3080
 Red. masses --      3.6685                 3.9868                 3.6673
 Frc consts  --      0.0045                 0.0138                 0.0196
 IR Inten    --      0.7669                 2.2098                 6.5391

                      4                      5                      6
                      A                      A                      A
 Frequencies --    139.4166               183.0780               236.9128
 Red. masses --      3.4704                 3.0761                 3.0436
 Frc consts  --      0.0397                 0.0607                 0.1007
 IR Inten    --      1.3892                 3.5183                 2.8377

                      7                      8                      9
                      A                      A                      A
 Frequencies --    271.0284               278.3042               332.9779
 Red. masses --      3.2927                 2.2172                 2.0542
 Frc consts  --      0.1425                 0.1012                 0.1342
 IR Inten    --      3.1856                 1.4569                 0.2698

                     10                     11                     12
                      A                      A                      A
 Frequencies --    380.6680               400.1479               435.3984
 Red. masses --      2.5105                 1.9776                 2.3239
 Frc consts  --      0.2143                 0.1866                 0.2596
 IR Inten    --      8.0565                10.8827                 8.1287

                     13                     14                     15
                      A                      A                      A
 Frequencies --    442.0603               486.2251               524.8535
 Red. masses --      3.2944                 3.8142                 2.2225
 Frc consts  --      0.3793                 0.5313                 0.3607
 IR Inten    --      6.9640                 8.1175                 4.9716

                     16                     17                     18
                      A                      A                      A
 Frequencies --    534.3555               599.6201               670.8980
 Red. masses --      2.1374                 3.8320                 2.7055
 Frc consts  --      0.3596                 0.8118                 0.7175
 IR Inten    --      3.7686                17.3816                 5.3790

                     19                     20                     21
                      A                      A                      A
 Frequencies --    737.6784               834.5265               836.5444
 Red. masses --      2.4496                 3.0283                 1.6837
 Frc consts  --      0.7854                 1.2426                 0.6942
 IR Inten    --      1.2580                 8.5923                 2.1747

                     22                     23                     24
                      A                      A                      A
 Frequencies --    849.6530               874.9150               878.3340
 Red. masses --      3.3235                 1.9189                 1.7646
 Frc consts  --      1.4136                 0.8654                 0.8021
 IR Inten    --      5.7972                 5.8219                10.0474

                     25                     26                     27
                      A                      A                      A
 Frequencies --    896.9628               905.0663               914.5027
 Red. masses --      2.4841                 2.4905                 2.3256
 Frc consts  --      1.1775                 1.2020                 1.1459
 IR Inten    --     31.2373                 1.9605                62.0589

                     28                     29                     30
                      A                      A                      A
 Frequencies --    932.2424               951.0029              1007.7846
 Red. masses --      1.9658                 1.5761                 1.9723
 Frc consts  --      1.0066                 0.8398                 1.1802
 IR Inten    --      8.3509                 9.1084                79.4410

                     31                     32                     33
                      A                      A                      A
 Frequencies --   1033.0028              1038.3392              1061.0795
 Red. masses --      1.9173                 2.2968                 1.7561
 Frc consts  --      1.2054                 1.4590                 1.1649
 IR Inten    --     69.7411                20.6242                43.0292

                     34                     35                     36
                      A                      A                      A
 Frequencies --   1063.9416              1070.1646              1077.0517
 Red. masses --      2.1807                 1.8089                 2.5403
 Frc consts  --      1.4544                 1.2206                 1.7362
 IR Inten    --    118.9075                26.5321               148.6749

                     37                     38                     39
                      A                      A                      A
 Frequencies --   1104.9629              1144.0398              1157.3409
 Red. masses --      1.6171                 2.5092                 3.1005
 Frc consts  --      1.1633                 1.9350                 2.4468
 IR Inten    --     53.0181                31.4750               214.1461

                     40                     41                     42
                      A                      A                      A
 Frequencies --   1175.1397              1184.9789              1210.2366
 Red. masses --      3.0417                 2.6244                 1.4029
 Frc consts  --      2.4748                 2.1712                 1.2106
 IR Inten    --    104.9236                40.5956                19.8624

                     43                     44                     45
                      A                      A                      A
 Frequencies --   1225.9083              1234.0019              1246.9261
 Red. masses --      1.3381                 1.6182                 1.7972
 Frc consts  --      1.1848                 1.4519                 1.6464
 IR Inten    --     53.6807                37.7030                44.6846

                     46                     47                     48
                      A                      A                      A
 Frequencies --   1287.4779              1304.5109              1320.1052
 Red. masses --      1.2149                 1.1297                 1.1530
 Frc consts  --      1.1866                 1.1327                 1.1839
 IR Inten    --     21.4085                 7.9580                 8.0514

                     49                     50                     51
                      A                      A                      A
 Frequencies --   1339.3248              1358.6557              1363.3453
 Red. masses --      1.2215                 1.3502                 1.4044
 Frc consts  --      1.2910                 1.4685                 1.5380
 IR Inten    --     14.7678                13.0175                11.7429

                     52                     53                     54
                      A                      A                      A
 Frequencies --   1371.3795              1379.7353              1387.2278
 Red. masses --      1.4517                 1.3546                 1.5231
 Frc consts  --      1.6085                 1.5194                 1.7270
 IR Inten    --      2.5433                30.8560                 4.2911

                     55                     56                     57
                      A                      A                      A
 Frequencies --   1391.7623              1398.3441              1401.1484
 Red. masses --      1.5505                 1.4167                 1.4313
 Frc consts  --      1.7696                 1.6322                 1.6556
 IR Inten    --      7.9818                13.2037                27.1923

                     58                     59                     60
                      A                      A                      A
 Frequencies --   1410.4260              1424.2948              1429.4507
 Red. masses --      1.4640                 1.3952                 1.3766
 Frc consts  --      1.7159                 1.6676                 1.6572
 IR Inten    --      5.2399                21.9867                 3.6783

                     61                     62                     63
                      A                      A                      A
 Frequencies --   1442.9574              1476.7247              1478.4505
 Red. masses --      1.3129                 1.1058                 1.0919
 Frc consts  --      1.6107                 1.4207                 1.4062
 IR Inten    --      9.5291                 4.1877                 8.4251

                     64                     65                     66
                      A                      A                      A
 Frequencies --   1482.9588              1486.3058              1492.0771
 Red. masses --      1.0866                 1.1116                 1.0882
 Frc consts  --      1.4079                 1.4469                 1.4274
 IR Inten    --      7.7914                17.9763                 3.6098

                     67                     68                     69
                      A                      A                      A
 Frequencies --   1494.8122              1508.6858              1509.7872
 Red. masses --      1.1080                 1.0949                 1.1012
 Frc consts  --      1.4586                 1.4683                 1.4790
 IR Inten    --     11.4108                 3.5410                 8.5685

                     70                     71                     72
                      A                      A                      A
 Frequencies --   3013.4464              3027.1006              3038.3688
 Red. masses --      1.0707                 1.0708                 1.0815
 Frc consts  --      5.7284                 5.7813                 5.8822
 IR Inten    --     82.8477                26.5701                91.7256

                     73                     74                     75
                      A                      A                      A
 Frequencies --   3054.3592              3063.4415              3065.6524
 Red. masses --      1.0682                 1.0630                 1.0692
 Frc consts  --      5.8715                 5.8778                 5.9204
 IR Inten    --     45.3249                43.3321                53.7923

                     76                     77                     78
                      A                      A                      A
 Frequencies --   3068.7244              3071.8614              3081.0431
 Red. masses --      1.0671                 1.0685                 1.0762
 Frc consts  --      5.9205                 5.9403                 6.0190
 IR Inten    --     28.8486                15.0323                86.0932

                     79                     80                     81
                      A                      A                      A
 Frequencies --   3085.2223              3113.0003              3118.5364
 Red. masses --      1.0604                 1.0982                 1.1019
 Frc consts  --      5.9469                 6.2701                 6.3136
 IR Inten    --     33.0158                39.3105                66.1403

                     82                     83                     84
                      A                      A                      A
 Frequencies --   3125.9830              3128.7615              3129.0017
 Red. masses --      1.0967                 1.0952                 1.1022
 Frc consts  --      6.3141                 6.3167                 6.3579
 IR Inten    --     21.4682                44.2236                49.3051

                     85                     86                     87
                      A                      A                      A
 Frequencies --   3132.7589              3134.1577              3135.0456
 Red. masses --      1.0988                 1.0965                 1.0997
 Frc consts  --      6.3539                 6.3462                 6.3683
 IR Inten    --     70.3211                 5.6435                47.5622

 - Thermochemistry -
 -------------------
 Temperature   298.150 Kelvin.  Pressure   1.00000 Atm.
 Atom     1 has atomic number  6 and mass  12.00000

 Molecular mass:   186.12559 amu.
 Principal axes and moments of inertia in atomic units:
                           1         2         3
     Eigenvalues --  1191.145613477.484963681.18031
           X            0.99982   0.00813   0.01693
           Y           -0.00697   0.99769  -0.06759
           Z           -0.01744   0.06746   0.99757
 This molecule is an asymmetric top.
 Rotational symmetry number  1.
 Warning -- assumption of classical behavior for rotation
           may cause significant error
 Rotational temperatures (Kelvin)      0.07271     0.02491     0.02353
 Rotational constants (GHZ):           1.51513     0.51898     0.49026
 Zero-point vibrational energy     737533.4 (Joules/Mol)
                                  176.27472 (Kcal/Mol)
 Warning -- explicit consideration of  17 degrees of freedom as
           vibrations may cause significant error
 Vibrational temperatures:     65.37   110.12   137.13   200.59   263.41
          (Kelvin)            340.86   389.95   400.42   479.08   547.70
                              575.72   626.44   636.03   699.57   755.15
                              768.82   862.72   965.27  1061.35  1200.70
                             1203.60  1222.46  1258.81  1263.73  1290.53
                             1302.19  1315.77  1341.29  1368.28  1449.98
                             1486.26  1493.94  1526.66  1530.77  1539.73
                             1549.64  1589.80  1646.02  1665.16  1690.76
                             1704.92  1741.26  1763.81  1775.45  1794.05
                             1852.39  1876.90  1899.34  1926.99  1954.80
                             1961.55  1973.11  1985.13  1995.91  2002.44
                             2011.91  2015.94  2029.29  2049.24  2056.66
                             2076.09  2124.68  2127.16  2133.65  2138.46
                             2146.77  2150.70  2170.66  2172.25  4335.68
                             4355.32  4371.54  4394.54  4407.61  4410.79
                             4415.21  4419.72  4432.93  4438.95  4478.91
                             4486.88  4497.59  4501.59  4501.94  4507.34
                             4509.35  4510.63

 Zero-point correction=                           0.280912 (Hartree/Particle)
 Thermal correction to Energy=                    0.292483
 Thermal correction to Enthalpy=                  0.293428
 Thermal correction to Gibbs Free Energy=         0.243089
 Sum of electronic and zero-point Energies=           -617.222568
 Sum of electronic and thermal Energies=              -617.210996
 Sum of electronic and thermal Enthalpies=            -617.210052
 Sum of electronic and thermal Free Energies=         -617.260391

                     E (Thermal)             CV                S
                      KCal/Mol        Cal/Mol-Kelvin    Cal/Mol-Kelvin
 Total                  183.536             46.443            105.946
 Electronic               0.000              0.000              0.000
 Translational            0.889              2.981             41.570
 Rotational               0.889              2.981             31.101
 Vibrational            181.759             40.481             33.275
 Vibration     1          0.595              1.979              5.007
 Vibration     2          0.599              1.965              3.978
 Vibration     3          0.603              1.953              3.548
 Vibration     4          0.615              1.914              2.812
 Vibration     5          0.631              1.863              2.297
 Vibration     6          0.656              1.784              1.826
 Vibration     7          0.675              1.727              1.590
 Vibration     8          0.679              1.714              1.544
 Vibration     9          0.715              1.610              1.246
 Vibration    10          0.750              1.511              1.037
 Vibration    11          0.766              1.470              0.962
 Vibration    12          0.796              1.393              0.841
 Vibration    13          0.802              1.378              0.820
 Vibration    14          0.842              1.281              0.693
 Vibration    15          0.880              1.195              0.599
 Vibration    16          0.889              1.174              0.578
 Vibration    17          0.958              1.033              0.450

 Optimization completed.
    -- Stationary point found.
 Normal termination of Gaussian 16 at Sun Nov  4 22:52:35 2018.
