 Gaussian 16, Revision A.03,
 Gaussian 16:  ES64L-G16RevA.03 25-Dec-2016

 ----------------------------------------------------------------------
 #M062X/6-311++G(2d,2p) opt=ModRedundant freq=noraman SCRF=(Solvent=Wat
 er)
 ----------------------------------------------------------------------

 ---------------------------
 D_1a_4a_L_PSI.inp_extract_8
 ---------------------------
 Symbolic Z-matrix:
 Charge =  0 Multiplicity = 1

 SCF Done:  E(RM062X) =  -617.493656447     A.U. after   12 cycles
 SCF Done:  E(RM062X) =  -617.495562120     A.U. after   12 cycles
 SCF Done:  E(RM062X) =  -617.496033974     A.U. after   12 cycles
 SCF Done:  E(RM062X) =  -617.496506997     A.U. after   11 cycles
 SCF Done:  E(RM062X) =  -617.496709732     A.U. after   10 cycles
 SCF Done:  E(RM062X) =  -617.496729451     A.U. after    9 cycles
 SCF Done:  E(RM062X) =  -617.496732149     A.U. after    8 cycles
 SCF Done:  E(RM062X) =  -617.496732519     A.U. after    7 cycles
 Optimization completed.
    -- Stationary point found.
 Normal termination of Gaussian 16 at Sun Nov  4 22:08:06 2018.

 ----------------------------------------------------------------------
 #N Geom=AllCheck Guess=TCheck SCRF=Check GenChk RM062X/6-311++G(2d,2p)
  Freq
 ----------------------------------------------------------------------

 Structure from the checkpoint file:  "D_1a_4a_L_PSI.inp_extract_8.chk"
 ---------------------------
 D_1a_4a_L_PSI.inp_extract_8
 ---------------------------
 Charge =  0 Multiplicity = 1

                         Standard orientation:
 ---------------------------------------------------------------------
 Center     Atomic      Atomic             Coordinates (Angstroms)
 Number     Number       Type             X           Y           Z
 ---------------------------------------------------------------------
      1          6           0        2.910865    1.138844   -0.010274
      2          6           0        0.844469   -0.800376   -0.525759
      3          6           0       -2.008798   -1.384167   -0.284056
      4          6           0        3.092421   -0.297818    0.478512
      5          6           0       -2.698036    1.008240   -0.505623
      6          8           0       -1.754927    1.366126    0.493954
      7          6           0        1.429434    1.462166   -0.119602
      8          6           0       -1.157032   -0.980541    0.920901
      9          6           0       -2.263754   -0.237032   -1.264777
     10          6           0       -1.633122    0.357066    1.474738
     11          8           0        0.760643    0.535137   -0.970905
     12          8           0        0.264468   -0.987006    0.736763
     13          6           0        2.296798   -1.246893   -0.417122
     14          1           0        3.373748    1.255101   -0.993470
     15          1           0        3.388534    1.848283    0.666448
     16          1           0       -2.968680   -1.705744    0.127978
     17          1           0        4.145788   -0.576792    0.478576
     18          1           0        2.733935   -0.380474    1.506338
     19          1           0        0.959640    1.450482    0.867017
     20          1           0        1.263337    2.441519   -0.563493
     21          1           0       -1.369506   -0.001926   -1.837198
     22          1           0       -3.048879   -0.519443   -1.967184
     23          1           0       -2.604160    0.200000    1.962923
     24          1           0       -0.924488    0.717741    2.218688
     25          1           0        2.717084   -1.241896   -1.424592
     26          1           0        2.327238   -2.270150   -0.045262
     27          1           0        0.318088   -1.379764   -1.284127
     28          1           0       -3.674737    0.840311   -0.032714
     29          1           0       -2.782854    1.865725   -1.170044
     30          1           0       -1.581427   -2.255665   -0.779849
     31          1           0       -1.313590   -1.718294    1.709832
 ---------------------------------------------------------------------

 SCF Done:  E(RM062X) =  -617.496732519     A.U. after    1 cycles

 The electronic state is 1-A.
 Alpha  occ. eigenvalues --  -19.62768 -19.62521 -19.62285 -10.63203 -10.58938
 Alpha  occ. eigenvalues --  -10.57809 -10.57758 -10.57287 -10.53596 -10.52838
 Alpha  occ. eigenvalues --  -10.52792 -10.52675 -10.52625  -1.19433  -1.16103
 Alpha  occ. eigenvalues --   -1.12862  -0.90696  -0.89279  -0.87404  -0.84270
 Alpha  occ. eigenvalues --   -0.75075  -0.73728  -0.72787  -0.70920  -0.66120
 Alpha  occ. eigenvalues --   -0.62028  -0.59441  -0.58448  -0.56831  -0.55412
 Alpha  occ. eigenvalues --   -0.53773  -0.53214  -0.51679  -0.51297  -0.49285
 Alpha  occ. eigenvalues --   -0.48213  -0.46354  -0.45970  -0.45419  -0.45049
 Alpha  occ. eigenvalues --   -0.43213  -0.42682  -0.40974  -0.39760  -0.39014
 Alpha  occ. eigenvalues --   -0.38149  -0.37613  -0.35503  -0.35106  -0.32747
 Alpha  occ. eigenvalues --   -0.31263
 Alpha virt. eigenvalues --   -0.00199   0.00754   0.00950   0.01093   0.02335
 Alpha virt. eigenvalues --    0.02627   0.02731   0.03215   0.03315   0.04840
 Alpha virt. eigenvalues --    0.04996   0.05208   0.05546   0.05690   0.07298

 Mulliken charges:
               1
     1  C   -0.450676
     2  C   -0.134988
     3  C   -0.596678
     4  C   -0.284914
     5  C   -0.320471
     6  O   -0.253945
     7  C    0.001352
     8  C    0.412637
     9  C   -0.134580
    10  C   -0.576871
    11  O   -0.195579
    12  O   -0.311570
    13  C   -0.611158
    14  H    0.156620
    15  H    0.175749
    16  H    0.232729
    17  H    0.189704
    18  H    0.167339
    19  H    0.134179
    20  H    0.211095
    21  H    0.201495
    22  H    0.201994
    23  H    0.167419
    24  H    0.222677
    25  H    0.191363
    26  H    0.186060
    27  H    0.249624
    28  H    0.154441
    29  H    0.198847
    30  H    0.176835
    31  H    0.239268
 Sum of Mulliken charges =  -0.00000

 Dipole moment (field-independent basis, Debye):
    X=             -0.9333    Y=             -1.8919    Z=              0.0710  Tot=              2.1108
 Quadrupole moment (field-independent basis, Debye-Ang):
   XX=            -71.0047   YY=            -80.9139   ZZ=            -79.9342
   XY=              4.1596   XZ=              0.2071   YZ=              1.0612

  Exact polarizability: 168.677   1.119 159.471   0.957  -0.584 155.675
 Approx polarizability: 144.614   1.851 142.970   0.138  -1.238 144.729

                      1                      2                      3
                      A                      A                      A
 Frequencies --     66.6873                71.5002               114.6224
 Red. masses --      4.0231                 4.3206                 3.2256
 Frc consts  --      0.0105                 0.0130                 0.0250
 IR Inten    --      1.3682                 2.0369                 3.2926

                      4                      5                      6
                      A                      A                      A
 Frequencies --    136.4136               189.6064               229.8822
 Red. masses --      3.6984                 3.7142                 2.7329
 Frc consts  --      0.0405                 0.0787                 0.0851
 IR Inten    --      3.8130                 1.4095                 9.3225

                      7                      8                      9
                      A                      A                      A
 Frequencies --    269.0805               303.4285               319.6926
 Red. masses --      3.2607                 2.3318                 2.0334
 Frc consts  --      0.1391                 0.1265                 0.1224
 IR Inten    --      6.2211                 8.7936                 2.2000

                     10                     11                     12
                      A                      A                      A
 Frequencies --    385.5528               408.1564               435.6166
 Red. masses --      2.0055                 2.4697                 2.8981
 Frc consts  --      0.1756                 0.2424                 0.3240
 IR Inten    --      6.0986                 3.3245                10.1075

                     13                     14                     15
                      A                      A                      A
 Frequencies --    443.0253               496.5605               519.5603
 Red. masses --      2.4936                 3.7697                 2.3343
 Frc consts  --      0.2884                 0.5477                 0.3713
 IR Inten    --      5.5666                13.0362                 1.5618

                     16                     17                     18
                      A                      A                      A
 Frequencies --    533.9654               579.9700               671.0425
 Red. masses --      2.2465                 3.0437                 2.9214
 Frc consts  --      0.3774                 0.6032                 0.7751
 IR Inten    --     10.5282                 6.0331                 1.8091

                     19                     20                     21
                      A                      A                      A
 Frequencies --    747.8798               798.8413               838.0615
 Red. masses --      2.3625                 3.0490                 1.6159
 Frc consts  --      0.7785                 1.1464                 0.6687
 IR Inten    --      8.5944                 3.8233                 7.0156

                     22                     23                     24
                      A                      A                      A
 Frequencies --    844.9355               863.2672               873.0738
 Red. masses --      3.2448                 1.7236                 2.4616
 Frc consts  --      1.3648                 0.7568                 1.1055
 IR Inten    --      3.5578                 4.6209                10.0451

                     25                     26                     27
                      A                      A                      A
 Frequencies --    895.1760               905.6431               914.2406
 Red. masses --      2.4371                 2.6349                 2.4329
 Frc consts  --      1.1506                 1.2733                 1.1981
 IR Inten    --     21.6465                36.8404                31.2709

                     28                     29                     30
                      A                      A                      A
 Frequencies --    924.1253               966.4302               981.1959
 Red. masses --      1.8603                 1.7070                 1.9985
 Frc consts  --      0.9360                 0.9393                 1.1336
 IR Inten    --     20.8059                 9.7587                47.6730

                     31                     32                     33
                      A                      A                      A
 Frequencies --   1037.7968              1042.0239              1057.3450
 Red. masses --      1.9621                 2.1903                 2.3340
 Frc consts  --      1.2451                 1.4012                 1.5374
 IR Inten    --      4.5065                22.4312               135.8328

                     34                     35                     36
                      A                      A                      A
 Frequencies --   1065.6874              1070.9900              1077.4001
 Red. masses --      1.7254                 1.7147                 2.4584
 Frc consts  --      1.1545                 1.1588                 1.6814
 IR Inten    --     95.8234                60.1101                99.3498

                     37                     38                     39
                      A                      A                      A
 Frequencies --   1100.5285              1146.4405              1158.0152
 Red. masses --      1.5443                 2.9758                 2.3872
 Frc consts  --      1.1020                 2.3044                 1.8861
 IR Inten    --     41.7543                93.4357                24.4916

                     40                     41                     42
                      A                      A                      A
 Frequencies --   1169.5046              1194.4167              1211.0172
 Red. masses --      2.6699                 2.9714                 1.4220
 Frc consts  --      2.1515                 2.4976                 1.2287
 IR Inten    --    104.9217               134.3607                20.0274

                     43                     44                     45
                      A                      A                      A
 Frequencies --   1233.4892              1243.3048              1250.7671
 Red. masses --      1.5809                 1.4305                 1.8519
 Frc consts  --      1.4172                 1.3028                 1.7069
 IR Inten    --     63.4242                69.5188                37.1462

                     46                     47                     48
                      A                      A                      A
 Frequencies --   1288.0782              1317.8974              1320.5001
 Red. masses --      1.2138                 1.1428                 1.1907
 Frc consts  --      1.1866                 1.1695                 1.2233
 IR Inten    --     17.1941                 6.2451                35.2565

                     49                     50                     51
                      A                      A                      A
 Frequencies --   1344.1367              1359.7527              1367.8615
 Red. masses --      1.2997                 1.3428                 1.5486
 Frc consts  --      1.3835                 1.4628                 1.7071
 IR Inten    --     34.5257                 3.0678                 3.2019

                     52                     53                     54
                      A                      A                      A
 Frequencies --   1370.5324              1384.5665              1391.0090
 Red. masses --      1.3321                 1.4721                 1.6453
 Frc consts  --      1.4742                 1.6627                 1.8757
 IR Inten    --      4.6198                 1.0919                 7.3625

                     55                     56                     57
                      A                      A                      A
 Frequencies --   1394.6071              1399.0400              1403.1781
 Red. masses --      1.4256                 1.2683                 1.4019
 Frc consts  --      1.6336                 1.4626                 1.6263
 IR Inten    --      6.8301                12.1210                 3.4838

                     58                     59                     60
                      A                      A                      A
 Frequencies --   1410.5849              1422.5171              1431.1536
 Red. masses --      1.3876                 1.2573                 1.3543
 Frc consts  --      1.6267                 1.4990                 1.6343
 IR Inten    --     15.2065                 3.1845                 5.8770

                     61                     62                     63
                      A                      A                      A
 Frequencies --   1433.0208              1477.5338              1482.8023
 Red. masses --      1.3153                 1.1028                 1.0846
 Frc consts  --      1.5914                 1.4184                 1.4050
 IR Inten    --     26.0340                 4.8793                 7.9833

                     64                     65                     66
                      A                      A                      A
 Frequencies --   1484.8229              1489.6249              1493.4255
 Red. masses --      1.0852                 1.0966                 1.0943
 Frc consts  --      1.4096                 1.4337                 1.4380
 IR Inten    --      3.7180                11.6188                15.9074

                     67                     68                     69
                      A                      A                      A
 Frequencies --   1495.7513              1508.9647              1512.1200
 Red. masses --      1.1085                 1.0935                 1.1023
 Frc consts  --      1.4612                 1.4670                 1.4850
 IR Inten    --     12.3390                 6.0274                 9.7925

                     70                     71                     72
                      A                      A                      A
 Frequencies --   3006.9821              3010.6807              3058.9943
 Red. masses --      1.0709                 1.0701                 1.0652
 Frc consts  --      5.7048                 5.7148                 5.8729
 IR Inten    --     63.6652               100.5728                34.6161

                     73                     74                     75
                      A                      A                      A
 Frequencies --   3063.1717              3069.8659              3072.7803
 Red. masses --      1.0685                 1.0628                 1.0634
 Frc consts  --      5.9072                 5.9013                 5.9159
 IR Inten    --      8.2542                55.7410                30.9547

                     76                     77                     78
                      A                      A                      A
 Frequencies --   3076.6419              3080.2632              3088.8374
 Red. masses --      1.0624                 1.0829                 1.0669
 Frc consts  --      5.9248                 6.0533                 5.9975
 IR Inten    --     23.6609                92.4452                41.2199

                     79                     80                     81
                      A                      A                      A
 Frequencies --   3105.4371              3110.1699              3115.0726
 Red. masses --      1.0894                 1.0976                 1.0943
 Frc consts  --      6.1897                 6.2557                 6.2563
 IR Inten    --     49.3496                40.5450                39.7271

                     82                     83                     84
                      A                      A                      A
 Frequencies --   3118.0767              3125.1313              3127.6262
 Red. masses --      1.1019                 1.0928                 1.0934
 Frc consts  --      6.3118                 6.2883                 6.3019
 IR Inten    --     80.2808                53.5769                28.5702

                     85                     86                     87
                      A                      A                      A
 Frequencies --   3130.3491              3132.3762              3153.2187
 Red. masses --      1.1027                 1.1016                 1.0976
 Frc consts  --      6.3666                 6.3683                 6.4298
 IR Inten    --     39.6529                53.8021                23.6860

 - Thermochemistry -
 -------------------
 Temperature   298.150 Kelvin.  Pressure   1.00000 Atm.
 Atom     1 has atomic number  6 and mass  12.00000

 Molecular mass:   186.12559 amu.
 Principal axes and moments of inertia in atomic units:
                           1         2         3
     Eigenvalues --  1182.796983071.381303359.53667
           X            0.99993   0.01000   0.00685
           Y           -0.01017   0.99961   0.02584
           Z           -0.00659  -0.02591   0.99964
 This molecule is an asymmetric top.
 Rotational symmetry number  1.
 Warning -- assumption of classical behavior for rotation
           may cause significant error
 Rotational temperatures (Kelvin)      0.07323     0.02820     0.02578
 Rotational constants (GHZ):           1.52582     0.58760     0.53720
 Zero-point vibrational energy     738186.3 (Joules/Mol)
                                  176.43077 (Kcal/Mol)
 Warning -- explicit consideration of  17 degrees of freedom as
           vibrations may cause significant error
 Vibrational temperatures:     95.95   102.87   164.92   196.27   272.80
          (Kelvin)            330.75   387.15   436.57   459.97   554.72
                              587.25   626.76   637.41   714.44   747.53
                              768.26   834.45   965.48  1076.03  1149.35
                             1205.78  1215.67  1242.05  1256.16  1287.96
                             1303.02  1315.39  1329.61  1390.48  1411.72
                             1493.16  1499.24  1521.28  1533.29  1540.92
                             1550.14  1583.42  1649.47  1666.13  1682.66
                             1718.50  1742.38  1774.72  1788.84  1799.57
                             1853.26  1896.16  1899.91  1933.91  1956.38
                             1968.05  1971.89  1992.08  2001.35  2006.53
                             2012.91  2018.86  2029.52  2046.68  2059.11
                             2061.80  2125.84  2133.42  2136.33  2143.24
                             2148.71  2152.05  2171.06  2175.60  4326.38
                             4331.70  4401.21  4407.22  4416.85  4421.05
                             4426.60  4431.81  4444.15  4468.03  4474.84
                             4481.89  4486.22  4496.37  4499.96  4503.87
                             4506.79  4536.78

 Zero-point correction=                           0.281160 (Hartree/Particle)
 Thermal correction to Energy=                    0.292656
 Thermal correction to Enthalpy=                  0.293600
 Thermal correction to Gibbs Free Energy=         0.243853
 Sum of electronic and zero-point Energies=           -617.215572
 Sum of electronic and thermal Energies=              -617.204076
 Sum of electronic and thermal Enthalpies=            -617.203132
 Sum of electronic and thermal Free Energies=         -617.252879

                     E (Thermal)             CV                S
                      KCal/Mol        Cal/Mol-Kelvin    Cal/Mol-Kelvin
 Total                  183.645             46.464            104.702
 Electronic               0.000              0.000              0.000
 Translational            0.889              2.981             41.570
 Rotational               0.889              2.981             30.879
 Vibrational            181.867             40.503             32.253
 Vibration     1          0.598              1.970              4.249
 Vibration     2          0.598              1.968              4.112
 Vibration     3          0.608              1.937              3.189
 Vibration     4          0.614              1.917              2.854
 Vibration     5          0.633              1.854              2.232
 Vibration     6          0.652              1.795              1.880
 Vibration     7          0.673              1.730              1.602
 Vibration     8          0.695              1.667              1.398
 Vibration     9          0.706              1.636              1.312
 Vibration    10          0.754              1.501              1.017
 Vibration    11          0.773              1.453              0.933
 Vibration    12          0.796              1.393              0.840
 Vibration    13          0.803              1.376              0.817
 Vibration    14          0.852              1.258              0.667
 Vibration    15          0.875              1.207              0.611
 Vibration    16          0.889              1.175              0.578
 Vibration    17          0.937              1.075              0.485

 Optimization completed.
    -- Stationary point found.
 Normal termination of Gaussian 16 at Sun Nov  4 23:03:20 2018.
