 Gaussian 16, Revision A.03,
 Gaussian 16:  ES64L-G16RevA.03 25-Dec-2016

 ----------------------------------------------------------------------
 #M062X/6-311++G(2d,2p) opt=ModRedundant freq=noraman SCRF=(Solvent=Wat
 er)
 ----------------------------------------------------------------------

 ---------------------------
 D_1a_4a_L_PSI.inp_extract_0
 ---------------------------
 Symbolic Z-matrix:
 Charge =  0 Multiplicity = 1

 SCF Done:  E(RM062X) =  -617.489095730     A.U. after   12 cycles
 SCF Done:  E(RM062X) =  -617.489193374     A.U. after   11 cycles
 SCF Done:  E(RM062X) =  -617.491076528     A.U. after   11 cycles
 SCF Done:  E(RM062X) =  -617.491258882     A.U. after   10 cycles
 SCF Done:  E(RM062X) =  -617.491472208     A.U. after   10 cycles
 SCF Done:  E(RM062X) =  -617.491494578     A.U. after    8 cycles
 SCF Done:  E(RM062X) =  -617.491500420     A.U. after    8 cycles
 SCF Done:  E(RM062X) =  -617.491503728     A.U. after    8 cycles
 SCF Done:  E(RM062X) =  -617.491508437     A.U. after    9 cycles
 SCF Done:  E(RM062X) =  -617.491509272     A.U. after    8 cycles
 Optimization completed.
    -- Stationary point found.
 Normal termination of Gaussian 16 at Mon Nov  5 04:39:17 2018.

 ----------------------------------------------------------------------
 #N Geom=AllCheck Guess=TCheck SCRF=Check GenChk RM062X/6-311++G(2d,2p)
  Freq
 ----------------------------------------------------------------------

 Structure from the checkpoint file:  "D_1a_4a_L_PSI.inp_extract_0.chk"
 ---------------------------
 D_1a_4a_L_PSI.inp_extract_0
 ---------------------------
 Charge =  0 Multiplicity = 1

                         Standard orientation:
 ---------------------------------------------------------------------
 Center     Atomic      Atomic             Coordinates (Angstroms)
 Number     Number       Type             X           Y           Z
 ---------------------------------------------------------------------
      1          6           0        3.228162    0.181496   -0.827410
      2          6           0        1.150156   -0.182668    1.192857
      3          6           0       -1.320865    1.179953   -0.606625
      4          6           0        2.241924    1.321322   -0.585396
      5          6           0       -3.515946    0.146298   -0.030808
      6          8           0       -2.880263   -1.111860    0.151967
      7          6           0        2.569635   -1.155783   -0.539330
      8          6           0       -0.697698   -0.208505   -0.458183
      9          6           0       -2.565692    1.294484    0.271865
     10          6           0       -1.765092   -1.265721   -0.705844
     11          8           0        2.011904   -1.220725    0.774505
     12          8           0       -0.194584   -0.437634    0.858062
     13          6           0        1.694186    1.200649    0.835681
     14          1           0        4.090187    0.301711   -0.167054
     15          1           0        3.594922    0.183506   -1.853857
     16          1           0       -1.601516    1.305910   -1.656090
     17          1           0        2.737015    2.284971   -0.701470
     18          1           0        1.442813    1.288794   -1.327576
     19          1           0        1.803941   -1.378181   -1.286012
     20          1           0        3.300023   -1.961696   -0.575124
     21          1           0       -2.282203    1.254408    1.324675
     22          1           0       -3.073679    2.243363    0.099123
     23          1           0       -2.088390   -1.204900   -1.752167
     24          1           0       -1.356893   -2.256506   -0.517107
     25          1           0        2.520757    1.379744    1.526845
     26          1           0        0.932919    1.945726    1.058234
     27          1           0        1.140996   -0.276199    2.277392
     28          1           0       -3.875905    0.220510   -1.065097
     29          1           0       -4.376800    0.153534    0.634423
     30          1           0       -0.600400    1.960618   -0.374114
     31          1           0        0.083137   -0.352712   -1.202133
 ---------------------------------------------------------------------

 SCF Done:  E(RM062X) =  -617.491509272     A.U. after    1 cycles

 The electronic state is 1-A.
 Alpha  occ. eigenvalues --  -19.63015 -19.62864 -19.62831 -10.63831 -10.58966
 Alpha  occ. eigenvalues --  -10.58172 -10.58078 -10.57914 -10.53521 -10.53461
 Alpha  occ. eigenvalues --  -10.53288 -10.53190 -10.52958  -1.19357  -1.16452
 Alpha  occ. eigenvalues --   -1.13161  -0.90621  -0.90491  -0.87568  -0.84807
 Alpha  occ. eigenvalues --   -0.74904  -0.74211  -0.73616  -0.71278  -0.66599
 Alpha  occ. eigenvalues --   -0.62942  -0.59587  -0.57927  -0.57054  -0.55368
 Alpha  occ. eigenvalues --   -0.54651  -0.53662  -0.52684  -0.50855  -0.50602
 Alpha  occ. eigenvalues --   -0.49080  -0.47147  -0.46214  -0.45761  -0.45220
 Alpha  occ. eigenvalues --   -0.43616  -0.42210  -0.41180  -0.40358  -0.39113
 Alpha  occ. eigenvalues --   -0.38636  -0.37886  -0.36709  -0.34147  -0.33462
 Alpha  occ. eigenvalues --   -0.31878
 Alpha virt. eigenvalues --   -0.00230   0.00663   0.00874   0.01192   0.02291
 Alpha virt. eigenvalues --    0.02542   0.02808   0.03178   0.03554   0.04634
 Alpha virt. eigenvalues --    0.04838   0.05027   0.05710   0.06126   0.07313

 Mulliken charges:
               1
     1  C   -0.301396
     2  C   -0.114168
     3  C   -0.366957
     4  C   -0.348286
     5  C   -0.239601
     6  O   -0.312521
     7  C   -0.271387
     8  C    0.097594
     9  C   -0.271434
    10  C   -0.515518
    11  O   -0.293775
    12  O   -0.269932
    13  C   -0.316922
    14  H    0.171766
    15  H    0.178979
    16  H    0.246498
    17  H    0.211076
    18  H    0.196962
    19  H    0.141679
    20  H    0.213452
    21  H    0.172817
    22  H    0.181583
    23  H    0.193543
    24  H    0.200315
    25  H    0.230849
    26  H    0.207648
    27  H    0.248230
    28  H    0.141319
    29  H    0.201773
    30  H    0.149244
    31  H    0.236571
 Sum of Mulliken charges =  -0.00000

 Dipole moment (field-independent basis, Debye):
    X=              1.6115    Y=              3.9417    Z=             -3.6520  Tot=              5.6099
 Quadrupole moment (field-independent basis, Debye-Ang):
   XX=            -77.7377   YY=            -82.6391   ZZ=            -78.8325
   XY=             -3.4957   XZ=              0.6976   YZ=              5.4927

  Exact polarizability: 172.398  -3.488 156.690  -2.024   2.461 154.368
 Approx polarizability: 146.428  -2.791 140.689  -0.672   0.350 144.992

                      1                      2                      3
                      A                      A                      A
 Frequencies --     40.0653                54.0803                97.2533
 Red. masses --      3.6375                 4.5470                 3.5046
 Frc consts  --      0.0034                 0.0078                 0.0195
 IR Inten    --      0.8679                 3.7712                 0.4777

                      4                      5                      6
                      A                      A                      A
 Frequencies --    135.3145               180.7388               214.0756
 Red. masses --      4.1824                 3.8619                 2.9155
 Frc consts  --      0.0451                 0.0743                 0.0787
 IR Inten    --      0.6928                11.5465                 1.4082

                      7                      8                      9
                      A                      A                      A
 Frequencies --    259.6598               296.7829               332.8875
 Red. masses --      2.5777                 2.2850                 2.2862
 Frc consts  --      0.1024                 0.1186                 0.1493
 IR Inten    --      4.4378                 1.6110                 1.5074

                     10                     11                     12
                      A                      A                      A
 Frequencies --    354.7321               427.1377               438.2315
 Red. masses --      1.7821                 2.0573                 3.2961
 Frc consts  --      0.1321                 0.2211                 0.3730
 IR Inten    --      0.1417                11.1763                 1.9795

                     13                     14                     15
                      A                      A                      A
 Frequencies --    447.1003               475.9155               522.4449
 Red. masses --      2.8781                 4.3295                 2.4641
 Frc consts  --      0.3390                 0.5778                 0.3963
 IR Inten    --      1.1769                 2.0254                 4.0994

                     16                     17                     18
                      A                      A                      A
 Frequencies --    540.1483               558.1289               675.1841
 Red. masses --      3.4539                 1.9981                 2.6090
 Frc consts  --      0.5937                 0.3667                 0.7008
 IR Inten    --     22.4356                 8.6426                 2.4284

                     19                     20                     21
                      A                      A                      A
 Frequencies --    753.5165               794.1771               834.3983
 Red. masses --      2.8809                 2.5355                 1.9481
 Frc consts  --      0.9638                 0.9422                 0.7991
 IR Inten    --     11.7304                 4.0522                14.3675

                     22                     23                     24
                      A                      A                      A
 Frequencies --    855.2306               859.7840               877.0860
 Red. masses --      2.9929                 2.3157                 1.6200
 Frc consts  --      1.2898                 1.0086                 0.7342
 IR Inten    --      8.6261                 1.0715                13.5779

                     25                     26                     27
                      A                      A                      A
 Frequencies --    891.6518               895.4217               916.3075
 Red. masses --      2.4919                 2.4519                 2.4980
 Frc consts  --      1.1673                 1.1582                 1.2357
 IR Inten    --     58.2454                12.0157                38.5079

                     28                     29                     30
                      A                      A                      A
 Frequencies --    928.3338               945.4144               990.2689
 Red. masses --      2.0036                 1.5309                 1.9993
 Frc consts  --      1.0173                 0.8062                 1.1551
 IR Inten    --     27.3514                 4.4608                16.7941

                     31                     32                     33
                      A                      A                      A
 Frequencies --   1026.3697              1046.2142              1051.3602
 Red. masses --      2.0114                 2.2468                 2.1684
 Frc consts  --      1.2484                 1.4490                 1.4122
 IR Inten    --     82.9592                 6.1000               195.0228

                     34                     35                     36
                      A                      A                      A
 Frequencies --   1068.3356              1074.6851              1081.0487
 Red. masses --      2.0717                 1.7766                 2.0350
 Frc consts  --      1.3931                 1.2089                 1.4012
 IR Inten    --     41.0767                53.9052               144.2570

                     37                     38                     39
                      A                      A                      A
 Frequencies --   1102.4395              1148.1196              1150.1468
 Red. masses --      1.5893                 2.5607                 2.4405
 Frc consts  --      1.1381                 1.9887                 1.9021
 IR Inten    --     22.9979               100.2777                82.0128

                     40                     41                     42
                      A                      A                      A
 Frequencies --   1162.2587              1187.7313              1219.0627
 Red. masses --      2.3370                 2.9770                 1.5128
 Frc consts  --      1.8600                 2.4744                 1.3246
 IR Inten    --     16.6417               164.2528                71.4659

                     43                     44                     45
                      A                      A                      A
 Frequencies --   1226.6366              1237.5688              1247.3865
 Red. masses --      1.3778                 1.6948                 1.8364
 Frc consts  --      1.2214                 1.5293                 1.6835
 IR Inten    --     18.2473                54.1326                72.7035

                     46                     47                     48
                      A                      A                      A
 Frequencies --   1296.4140              1300.2022              1315.6579
 Red. masses --      1.1738                 1.1622                 1.1902
 Frc consts  --      1.1623                 1.1575                 1.2139
 IR Inten    --     11.9227                35.2628                14.7716

                     49                     50                     51
                      A                      A                      A
 Frequencies --   1338.4227              1359.2144              1362.1851
 Red. masses --      1.2403                 1.5136                 1.3247
 Frc consts  --      1.3091                 1.6476                 1.4482
 IR Inten    --     10.1221                 8.4259                 5.2026

                     52                     53                     54
                      A                      A                      A
 Frequencies --   1368.3528              1382.4528              1389.8177
 Red. masses --      1.3460                 1.4947                 1.4436
 Frc consts  --      1.4848                 1.6830                 1.6429
 IR Inten    --      4.2701                13.6294                 1.0772

                     55                     56                     57
                      A                      A                      A
 Frequencies --   1392.3687              1400.9037              1403.8103
 Red. masses --      1.6367                 1.3656                 1.3610
 Frc consts  --      1.8695                 1.5791                 1.5803
 IR Inten    --     10.9657                 3.9669                 2.9743

                     58                     59                     60
                      A                      A                      A
 Frequencies --   1409.8775              1425.1278              1429.9056
 Red. masses --      1.4319                 1.3633                 1.3689
 Frc consts  --      1.6770                 1.6314                 1.6490
 IR Inten    --     16.3471                28.2810                 2.5411

                     61                     62                     63
                      A                      A                      A
 Frequencies --   1449.9168              1473.5179              1478.5271
 Red. masses --      1.1777                 1.0983                 1.1022
 Frc consts  --      1.4588                 1.4050                 1.4196
 IR Inten    --      2.1219                 9.8172                 1.9064

                     64                     65                     66
                      A                      A                      A
 Frequencies --   1484.3512              1492.6034              1501.2317
 Red. masses --      1.1023                 1.0891                 1.0883
 Frc consts  --      1.4310                 1.4295                 1.4451
 IR Inten    --      6.9944                 9.9594                11.3828

                     67                     68                     69
                      A                      A                      A
 Frequencies --   1510.4041              1513.1630              1529.1380
 Red. masses --      1.1007                 1.0996                 1.0894
 Frc consts  --      1.4795                 1.4834                 1.5008
 IR Inten    --     18.8207                 5.3620                 6.0740

                     70                     71                     72
                      A                      A                      A
 Frequencies --   3012.5763              3024.8845              3059.1390
 Red. masses --      1.0707                 1.0691                 1.0704
 Frc consts  --      5.7251                 5.7635                 5.9019
 IR Inten    --     78.8867                69.8003                34.8551

                     73                     74                     75
                      A                      A                      A
 Frequencies --   3063.7073              3066.8934              3072.1754
 Red. masses --      1.0707                 1.0630                 1.0698
 Frc consts  --      5.9210                 5.8907                 5.9488
 IR Inten    --     28.9705                52.5048                12.0096

                     76                     77                     78
                      A                      A                      A
 Frequencies --   3080.2433              3081.9217              3111.8875
 Red. masses --      1.0601                 1.0607                 1.0880
 Frc consts  --      5.9260                 5.9358                 6.2076
 IR Inten    --     32.1611                31.9600                75.0460

                     79                     80                     81
                      A                      A                      A
 Frequencies --   3116.9167              3121.6334              3124.2001
 Red. masses --      1.0970                 1.1009                 1.0998
 Frc consts  --      6.2792                 6.3204                 6.3250
 IR Inten    --     23.8942                45.5410                69.6476

                     82                     83                     84
                      A                      A                      A
 Frequencies --   3125.0249              3129.8336              3132.8247
 Red. masses --      1.0945                 1.0956                 1.0955
 Frc consts  --      6.2976                 6.3233                 6.3351
 IR Inten    --     26.7146                59.0900                18.1906

                     85                     86                     87
                      A                      A                      A
 Frequencies --   3134.1059              3136.7660              3149.8120
 Red. masses --      1.0974                 1.0891                 1.0916
 Frc consts  --      6.3512                 6.3137                 6.3807
 IR Inten    --     68.2127                54.6343                23.7720

 - Thermochemistry -
 -------------------
 Temperature   298.150 Kelvin.  Pressure   1.00000 Atm.
 Atom     1 has atomic number  6 and mass  12.00000

 Molecular mass:   186.12559 amu.
 Principal axes and moments of inertia in atomic units:
                           1         2         3
     Eigenvalues --  1071.940423675.187514005.06426
           X            0.99999  -0.00371  -0.00365
           Y            0.00390   0.99850   0.05463
           Z            0.00344  -0.05464   0.99850
 This molecule is an asymmetric top.
 Rotational symmetry number  1.
 Warning -- assumption of classical behavior for rotation
           may cause significant error
 Rotational temperatures (Kelvin)      0.08080     0.02357     0.02163
 Rotational constants (GHZ):           1.68362     0.49106     0.45061
 Zero-point vibrational energy     737934.1 (Joules/Mol)
                                  176.37048 (Kcal/Mol)
 Warning -- explicit consideration of  17 degrees of freedom as
           vibrations may cause significant error
 Vibrational temperatures:     57.65    77.81   139.93   194.69   260.04
          (Kelvin)            308.01   373.59   427.00   478.95   510.38
                              614.56   630.52   643.28   684.74   751.68
                              777.15   803.02   971.44  1084.14  1142.64
                             1200.51  1230.49  1237.04  1261.93  1282.89
                             1288.31  1318.36  1335.67  1360.24  1424.78
                             1476.72  1505.27  1512.67  1537.10  1546.23
                             1555.39  1586.16  1651.89  1654.80  1672.23
                             1708.88  1753.96  1764.86  1780.59  1794.71
                             1865.25  1870.70  1892.94  1925.69  1955.61
                             1959.88  1968.75  1989.04  1999.64  2003.31
                             2015.59  2019.77  2028.50  2050.44  2057.32
                             2086.11  2120.06  2127.27  2135.65  2147.52
                             2159.94  2173.13  2177.10  2200.09  4334.43
                             4352.13  4401.42  4407.99  4412.58  4420.18
                             4431.78  4434.20  4477.31  4484.55  4491.33
                             4495.03  4496.21  4503.13  4507.44  4509.28
                             4513.11  4531.88

 Zero-point correction=                           0.281064 (Hartree/Particle)
 Thermal correction to Energy=                    0.292764
 Thermal correction to Enthalpy=                  0.293708
 Thermal correction to Gibbs Free Energy=         0.242762
 Sum of electronic and zero-point Energies=           -617.210445
 Sum of electronic and thermal Energies=              -617.198746
 Sum of electronic and thermal Enthalpies=            -617.197801
 Sum of electronic and thermal Free Energies=         -617.248747

                     E (Thermal)             CV                S
                      KCal/Mol        Cal/Mol-Kelvin    Cal/Mol-Kelvin
 Total                  183.712             46.643            107.224
 Electronic               0.000              0.000              0.000
 Translational            0.889              2.981             41.570
 Rotational               0.889              2.981             31.135
 Vibrational            181.935             40.681             34.520
 Vibration     1          0.594              1.981              5.256
 Vibration     2          0.596              1.976              4.662
 Vibration     3          0.603              1.951              3.509
 Vibration     4          0.613              1.918              2.869
 Vibration     5          0.630              1.866              2.321
 Vibration     6          0.644              1.820              2.009
 Vibration     7          0.668              1.746              1.664
 Vibration     8          0.690              1.680              1.435
 Vibration     9          0.715              1.610              1.246
 Vibration    10          0.731              1.566              1.145
 Vibration    11          0.789              1.411              0.868
 Vibration    12          0.798              1.387              0.832
 Vibration    13          0.806              1.367              0.805
 Vibration    14          0.833              1.303              0.721
 Vibration    15          0.877              1.200              0.604
 Vibration    16          0.895              1.161              0.565
 Vibration    17          0.914              1.122              0.528

 Optimization completed.
    -- Stationary point found.
 Normal termination of Gaussian 16 at Mon Nov  5 05:40:41 2018.
