 Gaussian 16, Revision B.01,
 Gaussian 16:  ES64L-G16RevB.01 20-Dec-2017

 ----------------------------------------------------------------------
 #M062X/6-311++G(2d,2p) opt=ModRedundant freq=noraman SCRF=(SMD,solvent
 =water)
 ----------------------------------------------------------------------

 -------------------------------
 4c1_b1_4e_4c1_PHI.inp_extract_1
 -------------------------------
 Symbolic Z-matrix:
 Charge =  0 Multiplicity = 1

 SCF Done:  E(RM062X) =  -617.506717632     A.U. after   12 cycles
 SCF Done:  E(RM062X) =  -617.508287720     A.U. after   10 cycles
 SCF Done:  E(RM062X) =  -617.508406381     A.U. after    9 cycles
 SCF Done:  E(RM062X) =  -617.508431096     A.U. after    9 cycles
 SCF Done:  E(RM062X) =  -617.508443390     A.U. after    9 cycles
 SCF Done:  E(RM062X) =  -617.508448362     A.U. after    8 cycles
 SCF Done:  E(RM062X) =  -617.508448988     A.U. after    8 cycles
 SCF Done:  E(RM062X) =  -617.508448987     A.U. after    7 cycles
 Optimization completed.
    -- Stationary point found.
 Normal termination of Gaussian 16 at Sun Mar 10 05:52:27 2019.

 ----------------------------------------------------------------------
 #N Geom=AllCheck Guess=TCheck SCRF=Check GenChk RM062X/6-311++G(2d,2p)
  Freq
 ----------------------------------------------------------------------

 Structure from the checkpoint file:  "4c1_b1_4e_4c1_PHI.inp_extract_1.chk"
 -------------------------------
 4c1_b1_4e_4c1_PHI.inp_extract_1
 -------------------------------
 Charge =  0 Multiplicity = 1

                         Standard orientation:
 ---------------------------------------------------------------------
 Center     Atomic      Atomic             Coordinates (Angstroms)
 Number     Number       Type             X           Y           Z
 ---------------------------------------------------------------------
      1          6           0       -3.600636   -0.953361    0.083302
      2          6           0        1.812182   -1.135074   -0.468499
      3          6           0        3.410167    1.095965    0.321249
      4          8           0        3.002825   -0.789594   -1.160189
      5          8           0       -1.565440    1.053441   -0.144429
      6          6           0       -2.746044    1.149247   -0.945564
      7          8           0       -0.022182   -0.292659    0.838461
      8          6           0       -3.927922    0.500996   -0.247151
      9          6           0        2.094111    0.820719    1.048294
     10          6           0       -1.200092   -0.300269    0.084128
     11          6           0        3.955266   -0.185101   -0.284814
     12          6           0        1.141876    0.105474    0.109707
     13          6           0       -2.279592   -1.033223    0.848543
     14          1           0       -4.400248   -1.409611    0.665182
     15          1           0       -3.511428   -1.521289   -0.846550
     16          1           0        2.041649   -1.828715    0.349109
     17          1           0        1.159876   -1.634968   -1.182764
     18          1           0        3.249239    1.824706   -0.476061
     19          1           0        4.148237    1.512197    1.006825
     20          1           0       -2.562628    0.664957   -1.911275
     21          1           0       -2.908468    2.210874   -1.116931
     22          1           0       -4.142791    1.053068    0.670614
     23          1           0       -4.805599    0.568218   -0.890590
     24          1           0        2.276261    0.174485    1.911653
     25          1           0        1.639593    1.743637    1.408310
     26          1           0       -1.026690   -0.772862   -0.892373
     27          1           0        4.842135    0.004986   -0.885458
     28          1           0        4.212638   -0.899304    0.505406
     29          1           0        0.855682    0.774833   -0.704732
     30          1           0       -2.376578   -0.559745    1.828390
     31          1           0       -1.968391   -2.067207    0.995328
 ---------------------------------------------------------------------

 SCF Done:  E(RM062X) =  -617.508448986     A.U. after    1 cycles

 The electronic state is 1-A.
 Alpha  occ. eigenvalues --  -19.63855 -19.63142 -19.62994 -10.63341 -10.58270
 Alpha  occ. eigenvalues --  -10.57522 -10.57450 -10.57423 -10.52597 -10.52569
 Alpha  occ. eigenvalues --  -10.52557 -10.52497 -10.52250  -1.20187  -1.16341
 Alpha  occ. eigenvalues --   -1.13714  -0.90663  -0.89508  -0.86675  -0.83660
 Alpha  occ. eigenvalues --   -0.74446  -0.73511  -0.72472  -0.69682  -0.65868
 Alpha  occ. eigenvalues --   -0.64441  -0.59794  -0.57797  -0.57226  -0.55126
 Alpha  occ. eigenvalues --   -0.54450  -0.52517  -0.51790  -0.50651  -0.49977
 Alpha  occ. eigenvalues --   -0.47952  -0.45801  -0.45578  -0.45512  -0.44101
 Alpha  occ. eigenvalues --   -0.43796  -0.40471  -0.40244  -0.40021  -0.39168
 Alpha  occ. eigenvalues --   -0.38203  -0.38087  -0.37243  -0.35849  -0.32620
 Alpha  occ. eigenvalues --   -0.31878
 Alpha virt. eigenvalues --    0.00503   0.01277   0.01396   0.01452   0.02578
 Alpha virt. eigenvalues --    0.02840   0.03033   0.04087   0.04226   0.04696
 Alpha virt. eigenvalues --    0.04855   0.05102   0.05905   0.06165   0.06998

 Mulliken charges:
               1
     1  C   -0.415562
     2  C   -0.318408
     3  C   -0.361279
     4  O   -0.374762
     5  O   -0.400498
     6  C   -0.148547
     7  O   -0.345972
     8  C   -0.330759
     9  C   -0.220018
    10  C   -0.038789
    11  C   -0.158643
    12  C   -0.174462
    13  C   -0.215657
    14  H    0.202382
    15  H    0.176547
    16  H    0.207054
    17  H    0.206984
    18  H    0.165297
    19  H    0.193879
    20  H    0.153621
    21  H    0.204332
    22  H    0.160393
    23  H    0.181476
    24  H    0.206207
    25  H    0.171693
    26  H    0.250022
    27  H    0.217151
    28  H    0.151255
    29  H    0.281174
    30  H    0.199632
    31  H    0.174258
 Sum of Mulliken charges =  -0.00000

 Dipole moment (field-independent basis, Debye):
    X=             -1.6159    Y=             -0.5163    Z=             -0.4976  Tot=              1.7679
 Quadrupole moment (field-independent basis, Debye-Ang):
   XX=            -65.7801   YY=            -79.9889   ZZ=            -83.5077
   XY=              5.0487   XZ=              9.5530   YZ=             -2.1008

  Exact polarizability: 188.049   1.313 170.823   2.244  -1.329 169.314
 Approx polarizability: 148.115   0.627 141.419   1.765  -0.834 142.890

                      1                      2                      3
                      A                      A                      A
 Frequencies --     34.8079                53.0200                70.1005
 Red. masses --      3.3798                 4.0031                 3.7894
 Frc consts  --      0.0024                 0.0066                 0.0110
 IR Inten    --      3.5842                 2.5227                 2.4006

                      4                      5                      6
                      A                      A                      A
 Frequencies --    151.1093               194.5663               243.9224
 Red. masses --      3.0759                 3.1900                 2.3582
 Frc consts  --      0.0414                 0.0711                 0.0827
 IR Inten    --      2.3280                 0.4251                 8.2902

                      7                      8                      9
                      A                      A                      A
 Frequencies --    249.6741               279.6915               334.9041
 Red. masses --      2.0193                 3.4079                 2.2553
 Frc consts  --      0.0742                 0.1571                 0.1490
 IR Inten    --      5.2394                 1.9112                12.9970

                     10                     11                     12
                      A                      A                      A
 Frequencies --    358.1407               388.8940               440.5384
 Red. masses --      2.6254                 3.2101                 2.6877
 Frc consts  --      0.1984                 0.2860                 0.3073
 IR Inten    --     15.7001                 9.9140                 5.0221

                     13                     14                     15
                      A                      A                      A
 Frequencies --    446.2490               464.7571               488.3638
 Red. masses --      3.1367                 3.4347                 3.3344
 Frc consts  --      0.3680                 0.4371                 0.4685
 IR Inten    --      1.7107                 2.3638                 2.3428

                     16                     17                     18
                      A                      A                      A
 Frequencies --    514.7362               546.2781               590.7509
 Red. masses --      2.7763                 2.1001                 2.0102
 Frc consts  --      0.4334                 0.3692                 0.4133
 IR Inten    --      1.9411                14.4806                 6.3356

                     19                     20                     21
                      A                      A                      A
 Frequencies --    654.4480               832.7174               834.9939
 Red. masses --      3.1054                 1.9054                 2.0530
 Frc consts  --      0.7836                 0.7785                 0.8434
 IR Inten    --      2.3352                10.8163                 2.1294

                     22                     23                     24
                      A                      A                      A
 Frequencies --    861.3534               879.4950               883.2435
 Red. masses --      1.9039                 1.4087                 1.8801
 Frc consts  --      0.8323                 0.6420                 0.8642
 IR Inten    --     10.9200                11.6416                11.7733

                     25                     26                     27
                      A                      A                      A
 Frequencies --    900.3833               932.7027               943.3670
 Red. masses --      2.3247                 2.4196                 2.2116
 Frc consts  --      1.1104                 1.2402                 1.1596
 IR Inten    --     10.0788                65.1682                38.1591

                     28                     29                     30
                      A                      A                      A
 Frequencies --    959.2832               987.9323               996.0578
 Red. masses --      2.0915                 2.0986                 1.3852
 Frc consts  --      1.1340                 1.2068                 0.8097
 IR Inten    --     10.3892                53.0693                 0.9834

                     31                     32                     33
                      A                      A                      A
 Frequencies --   1008.0787              1053.6954              1057.4394
 Red. masses --      2.1303                 1.6967                 1.5408
 Frc consts  --      1.2755                 1.1099                 1.0151
 IR Inten    --     14.5346                18.9144                99.3234

                     34                     35                     36
                      A                      A                      A
 Frequencies --   1094.3440              1099.5203              1121.9233
 Red. masses --      2.4478                 3.5417                 4.1343
 Frc consts  --      1.7272                 2.5227                 3.0661
 IR Inten    --     68.8463                81.0457               284.3303

                     37                     38                     39
                      A                      A                      A
 Frequencies --   1152.0428              1154.7234              1171.4683
 Red. masses --      2.3659                 3.1026                 2.4008
 Frc consts  --      1.8500                 2.4374                 1.9412
 IR Inten    --     33.9682               122.1028                44.9845

                     40                     41                     42
                      A                      A                      A
 Frequencies --   1184.3156              1203.2968              1209.7414
 Red. masses --      2.0993                 1.5320                 1.7259
 Frc consts  --      1.7349                 1.3069                 1.4881
 IR Inten    --      7.7810                11.7325               214.3517

                     43                     44                     45
                      A                      A                      A
 Frequencies --   1228.7445              1240.1318              1252.9293
 Red. masses --      2.4303                 1.6683                 1.6422
 Frc consts  --      2.1619                 1.5117                 1.5189
 IR Inten    --     31.0950                45.1945                98.8616

                     46                     47                     48
                      A                      A                      A
 Frequencies --   1278.8694              1306.0379              1314.9425
 Red. masses --      1.2327                 1.1826                 1.1897
 Frc consts  --      1.1878                 1.1885                 1.2120
 IR Inten    --      7.0700                19.2147                29.2810

                     49                     50                     51
                      A                      A                      A
 Frequencies --   1331.1563              1343.2563              1347.5477
 Red. masses --      1.3058                 1.2777                 1.3000
 Frc consts  --      1.3632                 1.3583                 1.3909
 IR Inten    --      9.0019                 2.1258                 8.8462

                     52                     53                     54
                      A                      A                      A
 Frequencies --   1359.2419              1368.7763              1382.7166
 Red. masses --      1.2340                 1.4591                 1.4412
 Frc consts  --      1.3432                 1.6107                 1.6234
 IR Inten    --     18.9411                 3.9549                 5.4818

                     55                     56                     57
                      A                      A                      A
 Frequencies --   1385.1244              1399.4314              1400.5069
 Red. masses --      1.4992                 1.3299                 1.4031
 Frc consts  --      1.6946                 1.5345                 1.6215
 IR Inten    --      3.0704                18.4648                11.7960

                     58                     59                     60
                      A                      A                      A
 Frequencies --   1414.6375              1421.9731              1436.6103
 Red. masses --      1.4704                 1.3347                 1.4027
 Frc consts  --      1.7337                 1.5900                 1.7057
 IR Inten    --     22.9156                12.8530                18.4770

                     61                     62                     63
                      A                      A                      A
 Frequencies --   1449.8791              1470.1305              1472.9081
 Red. masses --      1.4402                 1.1104                 1.0975
 Frc consts  --      1.7838                 1.4140                 1.4028
 IR Inten    --     40.3702                 5.3433                12.0745

                     64                     65                     66
                      A                      A                      A
 Frequencies --   1473.0773              1488.2947              1489.5696
 Red. masses --      1.1241                 1.1206                 1.1408
 Frc consts  --      1.4372                 1.4624                 1.4914
 IR Inten    --      7.3468                25.4301                18.5662

                     67                     68                     69
                      A                      A                      A
 Frequencies --   1498.1111              1505.1858              1506.2519
 Red. masses --      1.0881                 1.0958                 1.1032
 Frc consts  --      1.4389                 1.4627                 1.4747
 IR Inten    --      0.4411                 4.2241                11.3509

                     70                     71                     72
                      A                      A                      A
 Frequencies --   3016.9141              3031.5442              3035.9136
 Red. masses --      1.0826                 1.0686                 1.0698
 Frc consts  --      5.8053                 5.7861                 5.8095
 IR Inten    --     66.2635                52.5823                82.5978

                     73                     74                     75
                      A                      A                      A
 Frequencies --   3037.3240              3057.9648              3060.8061
 Red. masses --      1.0701                 1.0659                 1.0687
 Frc consts  --      5.8163                 5.8726                 5.8992
 IR Inten    --     70.0169                21.3865                23.1582

                     76                     77                     78
                      A                      A                      A
 Frequencies --   3069.6377              3073.0974              3073.1442
 Red. masses --      1.0617                 1.0618                 1.0627
 Frc consts  --      5.8945                 5.9078                 5.9130
 IR Inten    --     41.0550                49.8210                26.9853

                     79                     80                     81
                      A                      A                      A
 Frequencies --   3081.4412              3118.9684              3119.2209
 Red. masses --      1.0827                 1.0989                 1.0976
 Frc consts  --      6.0574                 6.2984                 6.2917
 IR Inten    --     53.4255                44.9739                38.5351

                     82                     83                     84
                      A                      A                      A
 Frequencies --   3122.4870              3124.8845              3129.9385
 Red. masses --      1.1009                 1.1026                 1.1035
 Frc consts  --      6.3238                 6.3434                 6.3696
 IR Inten    --     57.8152                54.9945                49.1918

                     85                     86                     87
                      A                      A                      A
 Frequencies --   3135.3063              3140.5895              3141.1911
 Red. masses --      1.0969                 1.0964                 1.0961
 Frc consts  --      6.3528                 6.3717                 6.3722
 IR Inten    --     37.0690                41.4789                39.7070

 - Thermochemistry -
 -------------------
 Temperature   298.150 Kelvin.  Pressure   1.00000 Atm.
 Atom     1 has atomic number  6 and mass  12.00000

 Molecular mass:   186.12559 amu.
 Principal axes and moments of inertia in atomic units:
                           1         2         3
     Eigenvalues --   849.237965018.513255196.73151
           X            0.99993   0.00813   0.00800
           Y           -0.00785   0.99935  -0.03519
           Z           -0.00828   0.03513   0.99935
 This molecule is an asymmetric top.
 Rotational symmetry number  1.
 Warning -- assumption of classical behavior for rotation
           may cause significant error
 Rotational temperatures (Kelvin)      0.10199     0.01726     0.01667
 Rotational constants (GHZ):           2.12513     0.35962     0.34728
 Zero-point vibrational energy     736681.2 (Joules/Mol)
                                  176.07104 (Kcal/Mol)
 Warning -- explicit consideration of  18 degrees of freedom as
           vibrations may cause significant error
 Vibrational temperatures:     50.08    76.28   100.86   217.41   279.94
          (Kelvin)            350.95   359.23   402.41   481.85   515.28
                              559.53   633.84   642.05   668.68   702.65
                              740.59   785.97   849.96   941.60  1198.09
                             1201.37  1239.30  1265.40  1270.79  1295.45
                             1341.95  1357.29  1380.19  1421.41  1433.11
                             1450.40  1516.03  1521.42  1574.52  1581.96
                             1614.20  1657.53  1661.39  1685.48  1703.97
                             1731.28  1740.55  1767.89  1784.27  1802.69
                             1840.01  1879.10  1891.91  1915.24  1932.65
                             1938.82  1955.65  1969.36  1989.42  1992.89
                             2013.47  2015.02  2035.35  2045.90  2066.96
                             2086.05  2115.19  2119.19  2119.43  2141.32
                             2143.16  2155.45  2165.63  2167.16  4340.67
                             4361.72  4368.00  4370.03  4399.73  4403.82
                             4416.52  4421.50  4421.57  4433.51  4487.50
                             4487.86  4492.56  4496.01  4503.28  4511.01
                             4518.61  4519.47

 Zero-point correction=                           0.280587 (Hartree/Particle)
 Thermal correction to Energy=                    0.292407
 Thermal correction to Enthalpy=                  0.293351
 Thermal correction to Gibbs Free Energy=         0.241799
 Sum of electronic and zero-point Energies=           -617.227862
 Sum of electronic and thermal Energies=              -617.216042
 Sum of electronic and thermal Enthalpies=            -617.215098
 Sum of electronic and thermal Free Energies=         -617.266650

                     E (Thermal)             CV                S
                      KCal/Mol        Cal/Mol-Kelvin    Cal/Mol-Kelvin
 Total                  183.488             46.838            108.500
 Electronic               0.000              0.000              0.000
 Translational            0.889              2.981             41.570
 Rotational               0.889              2.981             31.472
 Vibrational            181.711             40.876             35.458
 Vibration     1          0.594              1.983              5.535
 Vibration     2          0.596              1.976              4.701
 Vibration     3          0.598              1.968              4.151
 Vibration     4          0.619              1.901              2.658
 Vibration     5          0.635              1.847              2.184
 Vibration     6          0.659              1.773              1.774
 Vibration     7          0.662              1.763              1.733
 Vibration     8          0.680              1.711              1.536
 Vibration     9          0.716              1.606              1.236
 Vibration    10          0.733              1.559              1.130
 Vibration    11          0.757              1.494              1.004
 Vibration    12          0.800              1.382              0.825
 Vibration    13          0.806              1.369              0.807
 Vibration    14          0.822              1.328              0.752
 Vibration    15          0.844              1.276              0.688
 Vibration    16          0.870              1.217              0.622
 Vibration    17          0.901              1.148              0.552
 Vibration    18          0.948              1.051              0.466

 Optimization completed.
    -- Stationary point found.
 Normal termination of Gaussian 16 at Sun Mar 10 06:53:53 2019.
