 Gaussian 16, Revision B.01,
 Gaussian 16:  ES64L-G16RevB.01 20-Dec-2017

 ----------------------------------------------------------------------
 #M062X/6-311++G(2d,2p) opt=ModRedundant freq=noraman SCRF=(SMD,solvent
 =water)
 ----------------------------------------------------------------------

 -------------------------------
 4c1_b1_4e_4c1_PHI.inp_extract_5
 -------------------------------
 Symbolic Z-matrix:
 Charge =  0 Multiplicity = 1

 SCF Done:  E(RM062X) =  -617.497437363     A.U. after   12 cycles
 SCF Done:  E(RM062X) =  -617.498987772     A.U. after   10 cycles
 SCF Done:  E(RM062X) =  -617.499127126     A.U. after   10 cycles
 SCF Done:  E(RM062X) =  -617.499211973     A.U. after    9 cycles
 SCF Done:  E(RM062X) =  -617.499215222     A.U. after    8 cycles
 SCF Done:  E(RM062X) =  -617.499215453     A.U. after    7 cycles
 Optimization completed.
    -- Stationary point found.
 Normal termination of Gaussian 16 at Sun Mar 10 06:51:52 2019.

 ----------------------------------------------------------------------
 #N Geom=AllCheck Guess=TCheck SCRF=Check GenChk RM062X/6-311++G(2d,2p)
  Freq
 ----------------------------------------------------------------------

 Structure from the checkpoint file:  "4c1_b1_4e_4c1_PHI.inp_extract_5.chk"
 -------------------------------
 4c1_b1_4e_4c1_PHI.inp_extract_5
 -------------------------------
 Charge =  0 Multiplicity = 1

                         Standard orientation:
 ---------------------------------------------------------------------
 Center     Atomic      Atomic             Coordinates (Angstroms)
 Number     Number       Type             X           Y           Z
 ---------------------------------------------------------------------
      1          6           0       -3.633729   -0.550756    0.570613
      2          6           0        2.305442   -1.207731   -0.455587
      3          6           0        2.729102    1.432264    0.552761
      4          8           0        3.486538   -0.476201   -0.744901
      5          8           0       -1.318357    0.655176   -0.628833
      6          6           0       -2.626737    1.069003   -1.033964
      7          8           0        0.012893   -1.123070    0.037658
      8          6           0       -3.628795    0.899935    0.093898
      9          6           0        1.405424    0.722095    0.836537
     10          6           0       -1.301748   -0.713151   -0.281083
     11          6           0        3.828625    0.412806    0.318476
     12          6           0        1.114921   -0.274750   -0.276389
     13          6           0       -2.207847   -0.989163    0.900437
     14          1           0       -4.278525   -0.673244    1.439699
     15          1           0       -4.032816   -1.189010   -0.222208
     16          1           0        2.445833   -1.796402    0.458889
     17          1           0        2.134850   -1.885462   -1.289807
     18          1           0        2.633341    2.061074   -0.335228
     19          1           0        3.006442    2.077339    1.386649
     20          1           0       -2.931089    0.478162   -1.904855
     21          1           0       -2.528599    2.108701   -1.337029
     22          1           0       -3.350396    1.561814    0.917062
     23          1           0       -4.615321    1.202202   -0.258491
     24          1           0        1.480993    0.165031    1.775003
     25          1           0        0.588293    1.434744    0.933986
     26          1           0       -1.636185   -1.283267   -1.159179
     27          1           0        4.761721    0.890058    0.026627
     28          1           0        4.003278   -0.172871    1.228124
     29          1           0        0.941767    0.247022   -1.218440
     30          1           0       -1.818890   -0.425287    1.752259
     31          1           0       -2.161234   -2.051145    1.141359
 ---------------------------------------------------------------------

 SCF Done:  E(RM062X) =  -617.499215453     A.U. after    1 cycles

 The electronic state is 1-A.
 Alpha  occ. eigenvalues --  -19.63279 -19.63115 -19.63063 -10.63447 -10.58214
 Alpha  occ. eigenvalues --  -10.57681 -10.57451 -10.57353 -10.52522 -10.52438
 Alpha  occ. eigenvalues --  -10.52318 -10.52291 -10.52183  -1.19837  -1.16304
 Alpha  occ. eigenvalues --   -1.13531  -0.90561  -0.89322  -0.86918  -0.83589
 Alpha  occ. eigenvalues --   -0.74590  -0.73585  -0.72271  -0.69236  -0.65298
 Alpha  occ. eigenvalues --   -0.64816  -0.59961  -0.57894  -0.56601  -0.54761
 Alpha  occ. eigenvalues --   -0.54283  -0.52291  -0.51722  -0.50473  -0.50086
 Alpha  occ. eigenvalues --   -0.47946  -0.46277  -0.45724  -0.45452  -0.44567
 Alpha  occ. eigenvalues --   -0.42822  -0.40786  -0.40158  -0.39636  -0.39288
 Alpha  occ. eigenvalues --   -0.38972  -0.37558  -0.36927  -0.35325  -0.32560
 Alpha  occ. eigenvalues --   -0.30869
 Alpha virt. eigenvalues --    0.00476   0.01284   0.01345   0.01424   0.02626
 Alpha virt. eigenvalues --    0.02919   0.03029   0.03876   0.04089   0.04804
 Alpha virt. eigenvalues --    0.05038   0.05246   0.05917   0.06106   0.07167

 Mulliken charges:
               1
     1  C   -0.429091
     2  C   -0.285530
     3  C   -0.374160
     4  O   -0.387714
     5  O   -0.343876
     6  C   -0.213221
     7  O   -0.353286
     8  C   -0.261647
     9  C   -0.197119
    10  C   -0.239928
    11  C   -0.217476
    12  C   -0.122197
    13  C   -0.033916
    14  H    0.187110
    15  H    0.183204
    16  H    0.197844
    17  H    0.210401
    18  H    0.173255
    19  H    0.178791
    20  H    0.168616
    21  H    0.199686
    22  H    0.159159
    23  H    0.182744
    24  H    0.218193
    25  H    0.172663
    26  H    0.242066
    27  H    0.213814
    28  H    0.155780
    29  H    0.262833
    30  H    0.166542
    31  H    0.186461
 Sum of Mulliken charges =  -0.00000

 Dipole moment (field-independent basis, Debye):
    X=             -3.5766    Y=              1.3930    Z=              1.1337  Tot=              4.0022
 Quadrupole moment (field-independent basis, Debye-Ang):
   XX=            -73.2395   YY=            -79.4278   ZZ=            -79.4231
   XY=              3.7125   XZ=              8.7751   YZ=              0.4425

  Exact polarizability: 185.299   1.602 174.180   2.579  -0.895 168.422
 Approx polarizability: 147.148   1.706 144.164   1.996  -0.659 141.126

 ******    1 imaginary frequencies (negative Signs) ******

                      1                      2                      3
                      A                      A                      A
 Frequencies --    -70.8903                54.8716                84.9865
 Red. masses --      4.1592                 3.5300                 3.6292
 Frc consts  --      0.0123                 0.0063                 0.0154
 IR Inten    --      6.3326                 1.6260                 0.8390

                      4                      5                      6
                      A                      A                      A
 Frequencies --    156.2900               181.7242               243.3806
 Red. masses --      3.2546                 3.1240                 2.3067
 Frc consts  --      0.0468                 0.0608                 0.0805
 IR Inten    --      0.3371                 3.6310                 7.4834

                      7                      8                      9
                      A                      A                      A
 Frequencies --    249.0343               270.4690               309.7521
 Red. masses --      1.9654                 3.9635                 4.5362
 Frc consts  --      0.0718                 0.1708                 0.2564
 IR Inten    --      5.4866                 0.2349                16.3287

                     10                     11                     12
                      A                      A                      A
 Frequencies --    349.4317               373.6726               433.3143
 Red. masses --      1.8839                 2.4029                 3.1361
 Frc consts  --      0.1355                 0.1977                 0.3469
 IR Inten    --      0.7374                13.4317                 8.2610

                     13                     14                     15
                      A                      A                      A
 Frequencies --    453.2856               466.4320               484.1022
 Red. masses --      3.3045                 3.0728                 2.3772
 Frc consts  --      0.4000                 0.3939                 0.3282
 IR Inten    --      3.8519                 2.3125                 2.2639

                     16                     17                     18
                      A                      A                      A
 Frequencies --    497.7467               548.6633               608.3765
 Red. masses --      3.1171                 1.9326                 2.3311
 Frc consts  --      0.4550                 0.3428                 0.5083
 IR Inten    --      8.8824                 8.0280                14.6218

                     19                     20                     21
                      A                      A                      A
 Frequencies --    644.3337               827.8669               838.5488
 Red. masses --      3.2919                 2.1577                 1.8396
 Frc consts  --      0.8052                 0.8713                 0.7621
 IR Inten    --      5.3818                 0.7023                 2.3470

                     22                     23                     24
                      A                      A                      A
 Frequencies --    853.7808               876.1666               881.4941
 Red. masses --      1.7137                 1.3950                 2.1624
 Frc consts  --      0.7360                 0.6310                 0.9900
 IR Inten    --     23.8661                17.2566                 3.1775

                     25                     26                     27
                      A                      A                      A
 Frequencies --    897.9897               941.0379               946.4446
 Red. masses --      2.4103                 2.2438                 2.1951
 Frc consts  --      1.1452                 1.1707                 1.1585
 IR Inten    --     12.6018                59.4824                21.7266

                     28                     29                     30
                      A                      A                      A
 Frequencies --    958.3834               978.2300               995.8216
 Red. masses --      1.9956                 2.1842                 1.4106
 Frc consts  --      1.0799                 1.2315                 0.8242
 IR Inten    --      6.3421                43.4125                 2.3380

                     31                     32                     33
                      A                      A                      A
 Frequencies --   1007.3752              1053.4455              1062.6001
 Red. masses --      2.0801                 1.7380                 1.5336
 Frc consts  --      1.2437                 1.1364                 1.0202
 IR Inten    --     12.0683                15.9359                38.6221

                     34                     35                     36
                      A                      A                      A
 Frequencies --   1070.2890              1105.3835              1149.0197
 Red. masses --      2.6939                 3.2403                 2.4806
 Frc consts  --      1.8182                 2.3327                 1.9296
 IR Inten    --     26.7752               164.2833                31.1512

                     37                     38                     39
                      A                      A                      A
 Frequencies --   1159.1188              1160.7165              1167.1230
 Red. masses --      2.6089                 2.4360                 2.2109
 Frc consts  --      2.0652                 1.9337                 1.7744
 IR Inten    --    138.0171                57.5915                29.3748

                     40                     41                     42
                      A                      A                      A
 Frequencies --   1185.3827              1200.0539              1210.7753
 Red. masses --      2.3603                 1.4413                 1.4944
 Frc consts  --      1.9541                 1.2229                 1.2907
 IR Inten    --      1.0225                10.1267                42.5037

                     43                     44                     45
                      A                      A                      A
 Frequencies --   1241.1848              1246.9616              1253.9065
 Red. masses --      1.7634                 2.3617                 2.4181
 Frc consts  --      1.6006                 2.1636                 2.2401
 IR Inten    --     30.5716               260.9885               308.9974

                     46                     47                     48
                      A                      A                      A
 Frequencies --   1279.2423              1301.2707              1321.6011
 Red. masses --      1.2474                 1.1806                 1.2828
 Frc consts  --      1.2027                 1.1779                 1.3201
 IR Inten    --     16.6953                29.2255                51.3643

                     49                     50                     51
                      A                      A                      A
 Frequencies --   1330.8182              1335.1528              1343.2904
 Red. masses --      1.3223                 1.2441                 1.2617
 Frc consts  --      1.3798                 1.3066                 1.3414
 IR Inten    --     12.2016                 1.1776                 5.3496

                     52                     53                     54
                      A                      A                      A
 Frequencies --   1352.6523              1367.1974              1379.1082
 Red. masses --      1.2822                 1.4419                 1.4519
 Frc consts  --      1.3822                 1.5880                 1.6270
 IR Inten    --     26.1476                 3.1951                 6.9316

                     55                     56                     57
                      A                      A                      A
 Frequencies --   1385.2979              1394.2539              1405.8330
 Red. masses --      1.5148                 1.4726                 1.3029
 Frc consts  --      1.7127                 1.6866                 1.5172
 IR Inten    --      6.4212                29.0923                16.4952

                     58                     59                     60
                      A                      A                      A
 Frequencies --   1407.6923              1424.1098              1434.0299
 Red. masses --      1.4349                 1.4297                 1.3296
 Frc consts  --      1.6753                 1.7084                 1.6110
 IR Inten    --     28.9362                18.3654                21.2246

                     61                     62                     63
                      A                      A                      A
 Frequencies --   1438.6114              1470.0311              1470.2603
 Red. masses --      1.5584                 1.0969                 1.1163
 Frc consts  --      1.9003                 1.3966                 1.4217
 IR Inten    --     31.9749                 4.5203                 7.8007

                     64                     65                     66
                      A                      A                      A
 Frequencies --   1472.2394              1487.1830              1487.5408
 Red. masses --      1.0883                 1.1209                 1.1263
 Frc consts  --      1.3899                 1.4606                 1.4683
 IR Inten    --      9.4452                 9.6896                30.2769

                     67                     68                     69
                      A                      A                      A
 Frequencies --   1498.0061              1505.6868              1506.8903
 Red. masses --      1.0844                 1.1026                 1.1023
 Frc consts  --      1.4337                 1.4728                 1.4747
 IR Inten    --      1.0455                 8.0241                10.6927

                     70                     71                     72
                      A                      A                      A
 Frequencies --   3000.5763              3031.2370              3035.7289
 Red. masses --      1.0829                 1.0683                 1.0696
 Frc consts  --      5.7445                 5.7836                 5.8078
 IR Inten    --    109.2952                58.7113                77.9638

                     73                     74                     75
                      A                      A                      A
 Frequencies --   3040.4398              3057.5241              3060.3146
 Red. masses --      1.0698                 1.0684                 1.0691
 Frc consts  --      5.8269                 5.8847                 5.8992
 IR Inten    --     72.5397                23.4068                17.6377

                     76                     77                     78
                      A                      A                      A
 Frequencies --   3067.1807              3070.1183              3071.3337
 Red. masses --      1.0625                 1.0615                 1.0623
 Frc consts  --      5.8892                 5.8947                 5.9042
 IR Inten    --     36.7766                59.6903                41.8560

                     79                     80                     81
                      A                      A                      A
 Frequencies --   3096.6327              3119.8629              3121.5831
 Red. masses --      1.0831                 1.0972                 1.1007
 Frc consts  --      6.1192                 6.2924                 6.3192
 IR Inten    --     52.5472                39.9647                47.4178

                     82                     83                     84
                      A                      A                      A
 Frequencies --   3122.8270              3127.1752              3133.3912
 Red. masses --      1.1007                 1.1029                 1.0973
 Frc consts  --      6.3241                 6.3548                 6.3474
 IR Inten    --     55.2742                52.8984                40.2561

                     85                     86                     87
                      A                      A                      A
 Frequencies --   3136.9882              3139.0882              3143.0869
 Red. masses --      1.0963                 1.0977                 1.0965
 Frc consts  --      6.3563                 6.3729                 6.3821
 IR Inten    --     43.6421                42.8254                37.3384

 - Thermochemistry -
 -------------------
 Temperature   298.150 Kelvin.  Pressure   1.00000 Atm.
 Atom     1 has atomic number  6 and mass  12.00000

 Molecular mass:   186.12559 amu.
 Principal axes and moments of inertia in atomic units:
                           1         2         3
     Eigenvalues --   880.304704696.587094972.53307
           X            0.99997   0.00509   0.00580
           Y           -0.00510   0.99999   0.00139
           Z           -0.00579  -0.00142   0.99998
 This molecule is an asymmetric top.
 Rotational symmetry number  1.
 Warning -- assumption of classical behavior for rotation
           may cause significant error
 Rotational temperatures (Kelvin)      0.09839     0.01844     0.01742
 Rotational constants (GHZ):           2.05013     0.38427     0.36294
    1 imaginary frequencies ignored.
 Zero-point vibrational energy     736014.7 (Joules/Mol)
                                  175.91174 (Kcal/Mol)
 Warning -- explicit consideration of  17 degrees of freedom as
           vibrations may cause significant error
 Vibrational temperatures:     78.95   122.28   224.87   261.46   350.17
          (Kelvin)            358.30   389.14   445.66   502.75   537.63
                              623.44   652.18   671.09   696.52   716.15
                              789.40   875.32   927.05  1191.12  1206.48
                             1228.40  1260.61  1268.27  1292.01  1353.94
                             1361.72  1378.90  1407.45  1432.77  1449.39
                             1515.67  1528.84  1539.91  1590.40  1653.18
                             1667.71  1670.01  1679.23  1705.50  1726.61
                             1742.04  1785.79  1794.10  1804.09  1840.54
                             1872.24  1901.49  1914.75  1920.99  1932.70
                             1946.16  1967.09  1984.23  1993.13  2006.02
                             2022.68  2025.36  2048.98  2063.25  2069.84
                             2115.05  2115.38  2118.22  2139.72  2140.24
                             2155.30  2166.35  2168.08  4317.16  4361.27
                             4367.74  4374.51  4399.10  4403.11  4412.99
                             4417.22  4418.96  4455.36  4488.79  4491.26
                             4493.05  4499.31  4508.25  4513.43  4516.45
                             4522.20

 Zero-point correction=                           0.280333 (Hartree/Particle)
 Thermal correction to Energy=                    0.291343
 Thermal correction to Enthalpy=                  0.292287
 Thermal correction to Gibbs Free Energy=         0.243427
 Sum of electronic and zero-point Energies=           -617.218882
 Sum of electronic and thermal Energies=              -617.207872
 Sum of electronic and thermal Enthalpies=            -617.206928
 Sum of electronic and thermal Free Energies=         -617.255788

                     E (Thermal)             CV                S
                      KCal/Mol        Cal/Mol-Kelvin    Cal/Mol-Kelvin
 Total                  182.821             45.009            102.835
 Electronic               0.000              0.000              0.000
 Translational            0.889              2.981             41.570
 Rotational               0.889              2.981             31.398
 Vibrational            181.043             39.048             29.868
 Vibration     1          0.596              1.976              4.634
 Vibration     2          0.601              1.960              3.772
 Vibration     3          0.620              1.896              2.594
 Vibration     4          0.630              1.865              2.311
 Vibration     5          0.659              1.774              1.778
 Vibration     6          0.662              1.764              1.737
 Vibration     7          0.674              1.728              1.593
 Vibration     8          0.699              1.655              1.364
 Vibration     9          0.727              1.576              1.169
 Vibration    10          0.745              1.526              1.065
 Vibration    11          0.794              1.398              0.848
 Vibration    12          0.812              1.354              0.786
 Vibration    13          0.824              1.325              0.748
 Vibration    14          0.840              1.285              0.699
 Vibration    15          0.853              1.255              0.664
 Vibration    16          0.904              1.143              0.547
 Vibration    17          0.967              1.014              0.435

 Optimization completed.
    -- Stationary point found.
 Normal termination of Gaussian 16 at Sun Mar 10 07:53:33 2019.
