 Gaussian 16, Revision B.01,
 Gaussian 16:  ES64L-G16RevB.01 20-Dec-2017

 ----------------------------------------------------------------------
 #M062X/6-311++G(2d,2p) opt=ModRedundant freq=noraman SCRF=(SMD,solvent
 =water)
 ----------------------------------------------------------------------

 -------------------------------
 4c1_b1_4e_4c1_PHI.inp_extract_9
 -------------------------------
 Symbolic Z-matrix:
 Charge =  0 Multiplicity = 1

 SCF Done:  E(RM062X) =  -617.502666684     A.U. after   12 cycles
 SCF Done:  E(RM062X) =  -617.504339301     A.U. after   10 cycles
 SCF Done:  E(RM062X) =  -617.504473920     A.U. after    9 cycles
 SCF Done:  E(RM062X) =  -617.504513543     A.U. after    9 cycles
 SCF Done:  E(RM062X) =  -617.504515260     A.U. after    7 cycles
 SCF Done:  E(RM062X) =  -617.504515510     A.U. after    7 cycles
 Optimization completed.
    -- Stationary point found.
 Normal termination of Gaussian 16 at Sun Mar 10 07:06:15 2019.

 ----------------------------------------------------------------------
 #N Geom=AllCheck Guess=TCheck SCRF=Check GenChk RM062X/6-311++G(2d,2p)
  Freq
 ----------------------------------------------------------------------

 Structure from the checkpoint file:  "4c1_b1_4e_4c1_PHI.inp_extract_9.chk"
 -------------------------------
 4c1_b1_4e_4c1_PHI.inp_extract_9
 -------------------------------
 Charge =  0 Multiplicity = 1

                         Standard orientation:
 ---------------------------------------------------------------------
 Center     Atomic      Atomic             Coordinates (Angstroms)
 Number     Number       Type             X           Y           Z
 ---------------------------------------------------------------------
      1          6           0       -3.337957    1.029100   -0.355914
      2          6           0        1.733951   -1.120427    0.510872
      3          6           0        3.116529    1.032078   -0.767477
      4          8           0        2.771803   -1.349164   -0.430941
      5          8           0       -1.435503   -1.050952    0.181691
      6          6           0       -2.795816   -1.386321   -0.106943
      7          8           0        0.013119    0.389010    1.222940
      8          6           0       -3.436696   -0.347102   -1.008116
      9          6           0        1.957627    1.342019    0.179062
     10          6           0       -1.331723    0.183899    0.867195
     11          6           0        3.742340   -0.302984   -0.406373
     12          6           0        0.989355    0.171897    0.200450
     13          6           0       -1.885433    1.318467    0.021951
     14          1           0       -3.719053    1.804741   -1.018869
     15          1           0       -3.953855    1.042799    0.547512
     16          1           0        2.154664   -1.054620    1.521493
     17          1           0        1.061652   -1.974133    0.462237
     18          1           0        2.755523    0.986631   -1.797290
     19          1           0        3.875698    1.812638   -0.716229
     20          1           0       -3.349508   -1.464726    0.835245
     21          1           0       -2.768429   -2.367665   -0.574807
     22          1           0       -2.918325   -0.343066   -1.969713
     23          1           0       -4.475596   -0.623992   -1.189233
     24          1           0        2.339029    1.490687    1.193257
     25          1           0        1.432748    2.250411   -0.118472
     26          1           0       -1.877395    0.114617    1.813764
     27          1           0        4.514217   -0.587507   -1.118242
     28          1           0        4.187363   -0.255505    0.593990
     29          1           0        0.507470    0.076629   -0.773588
     30          1           0       -1.274074    1.412407   -0.878958
     31          1           0       -1.800542    2.244756    0.590136
 ---------------------------------------------------------------------

 SCF Done:  E(RM062X) =  -617.504515510     A.U. after    1 cycles

 The electronic state is 1-A.
 Alpha  occ. eigenvalues --  -19.63468 -19.63143 -19.63042 -10.63421 -10.58181
 Alpha  occ. eigenvalues --  -10.57608 -10.57371 -10.57300 -10.52515 -10.52504
 Alpha  occ. eigenvalues --  -10.52439 -10.52302 -10.52262  -1.19983  -1.16246
 Alpha  occ. eigenvalues --   -1.13563  -0.90309  -0.89587  -0.86606  -0.83773
 Alpha  occ. eigenvalues --   -0.74433  -0.73765  -0.72525  -0.69443  -0.66112
 Alpha  occ. eigenvalues --   -0.63923  -0.59770  -0.57958  -0.56048  -0.55828
 Alpha  occ. eigenvalues --   -0.53534  -0.52453  -0.51687  -0.50880  -0.49553
 Alpha  occ. eigenvalues --   -0.48670  -0.46421  -0.45506  -0.45208  -0.44289
 Alpha  occ. eigenvalues --   -0.42767  -0.41745  -0.40353  -0.39576  -0.39238
 Alpha  occ. eigenvalues --   -0.38279  -0.37804  -0.37028  -0.35517  -0.32579
 Alpha  occ. eigenvalues --   -0.31189
 Alpha virt. eigenvalues --    0.00445   0.01257   0.01336   0.01579   0.02665
 Alpha virt. eigenvalues --    0.02913   0.03071   0.03835   0.04147   0.04982
 Alpha virt. eigenvalues --    0.05036   0.05119   0.06013   0.06080   0.07572

 Mulliken charges:
               1
     1  C   -0.433679
     2  C   -0.364920
     3  C   -0.375439
     4  O   -0.369437
     5  O   -0.394065
     6  C   -0.195919
     7  O   -0.334143
     8  C   -0.282826
     9  C   -0.238238
    10  C   -0.331688
    11  C   -0.161175
    12  C   -0.000466
    13  C   -0.042856
    14  H    0.169761
    15  H    0.192588
    16  H    0.196621
    17  H    0.218247
    18  H    0.166124
    19  H    0.192906
    20  H    0.168390
    21  H    0.197634
    22  H    0.163554
    23  H    0.181270
    24  H    0.209151
    25  H    0.162354
    26  H    0.268144
    27  H    0.211208
    28  H    0.154533
    29  H    0.300250
    30  H    0.186167
    31  H    0.185948
 Sum of Mulliken charges =  -0.00000

 Dipole moment (field-independent basis, Debye):
    X=             -2.4898    Y=              2.7325    Z=             -0.7647  Tot=              3.7750
 Quadrupole moment (field-independent basis, Debye-Ang):
   XX=            -64.5310   YY=            -82.8523   ZZ=            -81.5240
   XY=              7.2244   XZ=              1.0599   YZ=             -2.6602

  Exact polarizability: 186.804   3.453 171.686  -1.795   1.038 168.999
 Approx polarizability: 148.762   2.364 141.004  -1.690   2.073 142.525

                      1                      2                      3
                      A                      A                      A
 Frequencies --     35.0824                67.1858                71.7203
 Red. masses --      3.8291                 3.9203                 3.2920
 Frc consts  --      0.0028                 0.0104                 0.0100
 IR Inten    --      3.7449                 1.3184                 1.6281

                      4                      5                      6
                      A                      A                      A
 Frequencies --    139.1368               213.3759               244.8783
 Red. masses --      2.9074                 3.0323                 2.1628
 Frc consts  --      0.0332                 0.0813                 0.0764
 IR Inten    --      0.8378                 0.7236                 3.6472

                      7                      8                      9
                      A                      A                      A
 Frequencies --    253.9267               276.9551               343.2893
 Red. masses --      2.2398                 3.7047                 2.2822
 Frc consts  --      0.0851                 0.1674                 0.1585
 IR Inten    --     10.6248                 6.2944                 1.9944

                     10                     11                     12
                      A                      A                      A
 Frequencies --    356.3631               390.0483               437.9749
 Red. masses --      2.3336                 4.2781                 2.3574
 Frc consts  --      0.1746                 0.3835                 0.2664
 IR Inten    --      7.6440                21.1003                 4.9978

                     13                     14                     15
                      A                      A                      A
 Frequencies --    451.2296               454.9050               482.0340
 Red. masses --      3.8744                 3.6971                 2.3975
 Frc consts  --      0.4648                 0.4508                 0.3282
 IR Inten    --      5.5404                 2.5248                 4.7968

                     16                     17                     18
                      A                      A                      A
 Frequencies --    498.2060               555.8483               595.2003
 Red. masses --      3.7188                 1.8330                 2.0595
 Frc consts  --      0.5438                 0.3337                 0.4299
 IR Inten    --      9.7822                 7.1928                 7.6054

                     19                     20                     21
                      A                      A                      A
 Frequencies --    665.3400               830.8619               837.2483
 Red. masses --      3.5279                 2.1794                 1.7787
 Frc consts  --      0.9202                 0.8864                 0.7346
 IR Inten    --      8.0828                 0.8719                 1.8080

                     22                     23                     24
                      A                      A                      A
 Frequencies --    858.9220               878.7000               882.3255
 Red. masses --      1.7039                 1.3787                 2.1774
 Frc consts  --      0.7406                 0.6272                 0.9987
 IR Inten    --     22.3079                12.2382                 0.2885

                     25                     26                     27
                      A                      A                      A
 Frequencies --    898.7260               939.0827               948.6440
 Red. masses --      2.3152                 2.3331                 2.3357
 Frc consts  --      1.1018                 1.2123                 1.2384
 IR Inten    --     13.1860                21.5827                52.1973

                     28                     29                     30
                      A                      A                      A
 Frequencies --    962.2950               978.8282               993.8580
 Red. masses --      1.7784                 2.4228                 1.4459
 Frc consts  --      0.9703                 1.3677                 0.8415
 IR Inten    --     10.2901                38.3070                 5.5453

                     31                     32                     33
                      A                      A                      A
 Frequencies --   1005.0900              1049.7615              1062.5691
 Red. masses --      2.0725                 1.8529                 1.8758
 Frc consts  --      1.2335                 1.2031                 1.2478
 IR Inten    --     36.9121                40.3857                56.8283

                     34                     35                     36
                      A                      A                      A
 Frequencies --   1064.7283              1096.7670              1139.0006
 Red. masses --      1.8120                 2.7519                 3.7397
 Frc consts  --      1.2103                 1.9504                 2.8585
 IR Inten    --     22.1533                95.3836               229.3762

                     37                     38                     39
                      A                      A                      A
 Frequencies --   1151.9299              1153.2969              1162.1647
 Red. masses --      3.1811                 2.3141                 2.3076
 Frc consts  --      2.4871                 1.8135                 1.8363
 IR Inten    --    142.6311                 6.3926                23.2781

                     40                     41                     42
                      A                      A                      A
 Frequencies --   1188.4601              1201.4584              1215.7730
 Red. masses --      2.0997                 1.4580                 1.5750
 Frc consts  --      1.7473                 1.2400                 1.3716
 IR Inten    --      3.2933                26.3101                38.1181

                     43                     44                     45
                      A                      A                      A
 Frequencies --   1240.5771              1244.5497              1264.4245
 Red. masses --      1.6963                 1.5594                 3.2174
 Frc consts  --      1.5382                 1.4231                 3.0306
 IR Inten    --     66.0088                 2.7199               373.0163

                     46                     47                     48
                      A                      A                      A
 Frequencies --   1281.6081              1303.2366              1322.3255
 Red. masses --      1.2395                 1.2016                 1.2787
 Frc consts  --      1.1996                 1.2024                 1.3174
 IR Inten    --     11.6128                35.8748                49.5571

                     49                     50                     51
                      A                      A                      A
 Frequencies --   1329.0636              1340.3565              1349.7205
 Red. masses --      1.3150                 1.2619                 1.3064
 Frc consts  --      1.3685                 1.3357                 1.4022
 IR Inten    --     13.3141                 5.2941                11.3487

                     52                     53                     54
                      A                      A                      A
 Frequencies --   1360.0506              1366.5572              1380.7303
 Red. masses --      1.2189                 1.4192                 1.4456
 Frc consts  --      1.3284                 1.5615                 1.6238
 IR Inten    --     16.7193                 3.4585                 4.7181

                     55                     56                     57
                      A                      A                      A
 Frequencies --   1384.5725              1391.3319              1394.9876
 Red. masses --      1.5001                 1.5347                 1.3013
 Frc consts  --      1.6944                 1.7504                 1.4920
 IR Inten    --      4.4589                 8.8503                11.6402

                     58                     59                     60
                      A                      A                      A
 Frequencies --   1412.7310              1423.6023              1432.5448
 Red. masses --      1.4143                 1.3839                 1.4155
 Frc consts  --      1.6631                 1.6525                 1.7116
 IR Inten    --     13.3797                26.1768                30.4807

                     61                     62                     63
                      A                      A                      A
 Frequencies --   1436.4198              1469.4852              1471.7214
 Red. masses --      1.4815                 1.1140                 1.0942
 Frc consts  --      1.8010                 1.4173                 1.3964
 IR Inten    --     52.8819                 4.5033                 6.0781

                     64                     65                     66
                      A                      A                      A
 Frequencies --   1473.1317              1489.5622              1491.7211
 Red. masses --      1.1212                 1.1222                 1.1185
 Frc consts  --      1.4336                 1.4671                 1.4665
 IR Inten    --     17.4242                15.7252                22.3285

                     67                     68                     69
                      A                      A                      A
 Frequencies --   1496.3751              1505.1032              1505.5666
 Red. masses --      1.0841                 1.0995                 1.1020
 Frc consts  --      1.4302                 1.4675                 1.4718
 IR Inten    --      1.0735                 8.8063                 8.7429

                     70                     71                     72
                      A                      A                      A
 Frequencies --   3030.1587              3034.9072              3038.5143
 Red. masses --      1.0692                 1.0697                 1.0700
 Frc consts  --      5.7841                 5.8049                 5.8205
 IR Inten    --     56.0103                81.7096                65.4371

                     73                     74                     75
                      A                      A                      A
 Frequencies --   3055.1006              3058.6190              3059.3707
 Red. masses --      1.0845                 1.0637                 1.0685
 Frc consts  --      5.9640                 5.8632                 5.8921
 IR Inten    --     62.8993                35.0249                26.6120

                     76                     77                     78
                      A                      A                      A
 Frequencies --   3069.5341              3071.4628              3071.8461
 Red. masses --      1.0623                 1.0621                 1.0627
 Frc consts  --      5.8969                 5.9032                 5.9083
 IR Inten    --     33.6566                62.9974                31.9790

                     79                     80                     81
                      A                      A                      A
 Frequencies --   3096.9692              3114.8244              3118.9798
 Red. masses --      1.0843                 1.0996                 1.0957
 Frc consts  --      6.1271                 6.2857                 6.2803
 IR Inten    --     20.3828                51.2874                41.1636

                     82                     83                     84
                      A                      A                      A
 Frequencies --   3122.0069              3123.1764              3126.4616
 Red. masses --      1.1021                 1.1024                 1.1041
 Frc consts  --      6.3293                 6.3357                 6.3588
 IR Inten    --     50.1824                56.2493                68.3130

                     85                     86                     87
                      A                      A                      A
 Frequencies --   3138.1082              3142.6244              3147.7026
 Red. masses --      1.0962                 1.0963                 1.0963
 Frc consts  --      6.3601                 6.3794                 6.3998
 IR Inten    --     45.3346                42.4632                28.7223

 - Thermochemistry -
 -------------------
 Temperature   298.150 Kelvin.  Pressure   1.00000 Atm.
 Atom     1 has atomic number  6 and mass  12.00000

 Molecular mass:   186.12559 amu.
 Principal axes and moments of inertia in atomic units:
                           1         2         3
     Eigenvalues --  1002.777374333.252514726.30048
           X            0.99997   0.00721   0.00352
           Y           -0.00711   0.99959  -0.02783
           Z           -0.00372   0.02780   0.99961
 This molecule is an asymmetric top.
 Rotational symmetry number  1.
 Warning -- assumption of classical behavior for rotation
           may cause significant error
 Rotational temperatures (Kelvin)      0.08637     0.01999     0.01833
 Rotational constants (GHZ):           1.79974     0.41649     0.38185
 Zero-point vibrational energy     736993.0 (Joules/Mol)
                                  176.14556 (Kcal/Mol)
 Warning -- explicit consideration of  18 degrees of freedom as
           vibrations may cause significant error
 Vibrational temperatures:     50.48    96.67   103.19   200.19   307.00
          (Kelvin)            352.33   365.34   398.48   493.92   512.73
                              561.19   630.15   649.22   654.51   693.54
                              716.81   799.74   856.36   957.28  1195.43
                             1204.61  1235.80  1264.25  1269.47  1293.07
                             1351.13  1364.89  1384.53  1408.32  1429.94
                             1446.10  1510.37  1528.80  1531.91  1578.00
                             1638.77  1657.37  1659.34  1672.10  1709.93
                             1728.63  1749.23  1784.91  1790.63  1819.22
                             1843.95  1875.07  1902.53  1912.23  1928.47
                             1941.95  1956.81  1966.17  1986.56  1992.09
                             2001.82  2007.08  2032.60  2048.25  2061.11
                             2066.69  2114.26  2117.48  2119.51  2143.15
                             2146.25  2152.95  2165.51  2166.17  4359.72
                             4366.55  4371.74  4395.61  4400.67  4401.75
                             4416.37  4419.15  4419.70  4455.85  4481.54
                             4487.52  4491.87  4493.55  4498.28  4515.04
                             4521.54  4528.84

 Zero-point correction=                           0.280706 (Hartree/Particle)
 Thermal correction to Energy=                    0.292483
 Thermal correction to Enthalpy=                  0.293427
 Thermal correction to Gibbs Free Energy=         0.242175
 Sum of electronic and zero-point Energies=           -617.223810
 Sum of electronic and thermal Energies=              -617.212032
 Sum of electronic and thermal Enthalpies=            -617.211088
 Sum of electronic and thermal Free Energies=         -617.262341

                     E (Thermal)             CV                S
                      KCal/Mol        Cal/Mol-Kelvin    Cal/Mol-Kelvin
 Total                  183.536             46.828            107.871
 Electronic               0.000              0.000              0.000
 Translational            0.889              2.981             41.570
 Rotational               0.889              2.981             31.396
 Vibrational            181.759             40.867             34.904
 Vibration     1          0.594              1.982              5.519
 Vibration     2          0.598              1.970              4.234
 Vibration     3          0.598              1.967              4.106
 Vibration     4          0.615              1.914              2.816
 Vibration     5          0.644              1.821              2.015
 Vibration     6          0.660              1.771              1.767
 Vibration     7          0.665              1.756              1.703
 Vibration     8          0.678              1.716              1.552
 Vibration     9          0.722              1.589              1.197
 Vibration    10          0.732              1.562              1.138
 Vibration    11          0.758              1.491              1.000
 Vibration    12          0.798              1.387              0.833
 Vibration    13          0.810              1.358              0.792
 Vibration    14          0.813              1.350              0.781
 Vibration    15          0.838              1.290              0.705
 Vibration    16          0.854              1.254              0.663
 Vibration    17          0.911              1.127              0.532
 Vibration    18          0.953              1.042              0.458

                           ! Non-Optimized Parameters !
 Normal termination of Gaussian 16 at Sun Mar 10 08:10:34 2019.
