 Gaussian 16, Revision B.01,
 Gaussian 16:  ES64L-G16RevB.01 20-Dec-2017

 ----------------------------------------------------------------------
 #M062X/6-311++G(2d,2p) opt=ModRedundant freq=noraman SCRF=(SMD,solvent
 =water)
 ----------------------------------------------------------------------

 --------------------------------
 4c1_b1_4e_4c1_PHI.inp_extract_14
 --------------------------------
 Symbolic Z-matrix:
 Charge =  0 Multiplicity = 1

 SCF Done:  E(RM062X) =  -617.498171544     A.U. after   12 cycles
 SCF Done:  E(RM062X) =  -617.499520813     A.U. after   10 cycles
 SCF Done:  E(RM062X) =  -617.499741812     A.U. after   10 cycles
 SCF Done:  E(RM062X) =  -617.499933924     A.U. after    9 cycles
 SCF Done:  E(RM062X) =  -617.499961532     A.U. after    9 cycles
 SCF Done:  E(RM062X) =  -617.499964102     A.U. after    8 cycles
 SCF Done:  E(RM062X) =  -617.499964406     A.U. after    7 cycles
 Optimization completed.
    -- Stationary point found.
 Normal termination of Gaussian 16 at Sun Mar 10 08:24:14 2019.

 ----------------------------------------------------------------------
 #N Geom=AllCheck Guess=TCheck SCRF=Check GenChk RM062X/6-311++G(2d,2p)
  Freq
 ----------------------------------------------------------------------

 Structure from the checkpoint file:  "4c1_b1_4e_4c1_PHI.inp_extract_14.chk"
 --------------------------------
 4c1_b1_4e_4c1_PHI.inp_extract_14
 --------------------------------
 Charge =  0 Multiplicity = 1

                         Standard orientation:
 ---------------------------------------------------------------------
 Center     Atomic      Atomic             Coordinates (Angstroms)
 Number     Number       Type             X           Y           Z
 ---------------------------------------------------------------------
      1          6           0       -2.949248    1.439312   -0.320702
      2          6           0        2.043587   -1.304258   -0.254736
      3          6           0        3.114140    1.322463    0.105246
      4          8           0        3.206277   -0.868164   -0.941191
      5          8           0       -2.097376   -1.241383    0.165130
      6          6           0       -3.490745   -0.928447    0.231923
      7          8           0       -0.001100   -0.687703    0.731447
      8          6           0       -3.829244    0.242691   -0.672635
      9          6           0        1.818391    0.933621    0.816110
     10          6           0       -1.295618   -0.151319    0.600362
     11          6           0        3.944860    0.083314   -0.174500
     12          6           0        1.099689   -0.138902    0.010961
     13          6           0       -1.474614    1.028362   -0.337490
     14          1           0       -3.113176    2.259560   -1.018120
     15          1           0       -3.211524    1.802423    0.676428
     16          1           0        2.323595   -1.768596    0.698180
     17          1           0        1.558810   -2.049007   -0.882993
     18          1           0        2.887819    1.819487   -0.840686
     19          1           0        3.694366    2.016418    0.713509
     20          1           0       -3.752616   -0.694292    1.269769
     21          1           0       -4.017225   -1.833628   -0.061611
     22          1           0       -3.658631   -0.049593   -1.711164
     23          1           0       -4.886294    0.486657   -0.563570
     24          1           0        2.049133    0.516982    1.800589
     25          1           0        1.173565    1.799874    0.962849
     26          1           0       -1.632953    0.128590    1.605874
     27          1           0        4.832234    0.319542   -0.757776
     28          1           0        4.256660   -0.384865    0.766009
     29          1           0        0.778208    0.260609   -0.950414
     30          1           0       -1.194168    0.730757   -1.348928
     31          1           0       -0.837403    1.856056   -0.028264
 ---------------------------------------------------------------------

 SCF Done:  E(RM062X) =  -617.499964406     A.U. after    1 cycles

 The electronic state is 1-A.
 Alpha  occ. eigenvalues --  -19.63466 -19.63117 -19.62971 -10.63583 -10.58381
 Alpha  occ. eigenvalues --  -10.57523 -10.57467 -10.57403 -10.52682 -10.52628
 Alpha  occ. eigenvalues --  -10.52523 -10.52378 -10.52251  -1.19715  -1.16357
 Alpha  occ. eigenvalues --   -1.13584  -0.90033  -0.89875  -0.86916  -0.83869
 Alpha  occ. eigenvalues --   -0.74563  -0.73834  -0.72609  -0.69135  -0.66198
 Alpha  occ. eigenvalues --   -0.63977  -0.60064  -0.57445  -0.56695  -0.55425
 Alpha  occ. eigenvalues --   -0.53483  -0.53017  -0.51784  -0.50354  -0.49870
 Alpha  occ. eigenvalues --   -0.49116  -0.46841  -0.45549  -0.45359  -0.44047
 Alpha  occ. eigenvalues --   -0.42990  -0.41302  -0.40236  -0.39462  -0.39136
 Alpha  occ. eigenvalues --   -0.38508  -0.37643  -0.37200  -0.34853  -0.32716
 Alpha  occ. eigenvalues --   -0.31684
 Alpha virt. eigenvalues --    0.00487   0.01285   0.01322   0.01619   0.02587
 Alpha virt. eigenvalues --    0.02898   0.03042   0.04119   0.04227   0.04780
 Alpha virt. eigenvalues --    0.04990   0.05179   0.06065   0.06224   0.07353

 Mulliken charges:
               1
     1  C   -0.546695
     2  C   -0.241484
     3  C   -0.386870
     4  O   -0.366637
     5  O   -0.398770
     6  C   -0.153235
     7  O   -0.427484
     8  C   -0.297372
     9  C   -0.213629
    10  C    0.011573
    11  C   -0.221018
    12  C   -0.084980
    13  C   -0.235148
    14  H    0.169075
    15  H    0.195655
    16  H    0.203734
    17  H    0.207211
    18  H    0.168110
    19  H    0.181190
    20  H    0.152031
    21  H    0.209449
    22  H    0.161205
    23  H    0.182744
    24  H    0.216029
    25  H    0.192827
    26  H    0.262939
    27  H    0.214635
    28  H    0.156698
    29  H    0.294513
    30  H    0.232382
    31  H    0.161323
 Sum of Mulliken charges =  -0.00000

 Dipole moment (field-independent basis, Debye):
    X=             -1.7139    Y=              4.9208    Z=              0.9629  Tot=              5.2990
 Quadrupole moment (field-independent basis, Debye-Ang):
   XX=            -68.3618   YY=            -82.9914   ZZ=            -81.9106
   XY=              2.0983   XZ=              5.5737   YZ=             -0.2988

  Exact polarizability: 190.608   3.460 171.064  -0.792  -0.019 166.005
 Approx polarizability: 150.157   2.105 141.349  -0.865   0.361 141.016

 ******    1 imaginary frequencies (negative Signs) ******

                      1                      2                      3
                      A                      A                      A
 Frequencies --    -60.4233                66.1833                85.4987
 Red. masses --      3.9898                 3.7409                 3.4919
 Frc consts  --      0.0086                 0.0097                 0.0150
 IR Inten    --      1.1514                 1.6152                 1.4126

                      4                      5                      6
                      A                      A                      A
 Frequencies --    159.2563               210.9849               247.4396
 Red. masses --      3.0469                 3.1371                 2.1784
 Frc consts  --      0.0455                 0.0823                 0.0786
 IR Inten    --      0.9657                 2.5292                 4.1446

                      7                      8                      9
                      A                      A                      A
 Frequencies --    260.8094               284.5546               301.4573
 Red. masses --      2.3949                 3.0610                 4.4581
 Frc consts  --      0.0960                 0.1460                 0.2387
 IR Inten    --     10.4546                 2.1992                11.7427

                     10                     11                     12
                      A                      A                      A
 Frequencies --    360.5476               371.4752               428.2357
 Red. masses --      1.9390                 2.5042                 2.8122
 Frc consts  --      0.1485                 0.2036                 0.3038
 IR Inten    --      6.0135                 7.3894                 7.4438

                     13                     14                     15
                      A                      A                      A
 Frequencies --    455.4653               471.2589               482.8835
 Red. masses --      3.9210                 2.9880                 2.6023
 Frc consts  --      0.4792                 0.3910                 0.3575
 IR Inten    --      2.8746                 1.3823                 4.1843

                     16                     17                     18
                      A                      A                      A
 Frequencies --    504.2075               552.4480               598.7941
 Red. masses --      3.4900                 1.8282                 2.2564
 Frc consts  --      0.5228                 0.3287                 0.4767
 IR Inten    --      0.2224                 9.9369                16.8594

                     19                     20                     21
                      A                      A                      A
 Frequencies --    657.3909               827.1642               833.8473
 Red. masses --      3.1579                 2.0878                 2.1168
 Frc consts  --      0.8041                 0.8416                 0.8672
 IR Inten    --      9.5290                 6.4864                 6.0035

                     22                     23                     24
                      A                      A                      A
 Frequencies --    861.9008               873.8763               881.6443
 Red. masses --      1.5581                 1.4324                 2.2263
 Frc consts  --      0.6820                 0.6445                 1.0196
 IR Inten    --     12.5691                16.4431                 1.4965

                     25                     26                     27
                      A                      A                      A
 Frequencies --    900.4110               934.1077               943.1093
 Red. masses --      2.4096                 2.5250                 2.1397
 Frc consts  --      1.1510                 1.2981                 1.1213
 IR Inten    --     25.1673                14.3652                75.7581

                     28                     29                     30
                      A                      A                      A
 Frequencies --    963.9220               979.6204               999.5711
 Red. masses --      1.8650                 2.1729                 1.4406
 Frc consts  --      1.0210                 1.2286                 0.8481
 IR Inten    --     23.0332                11.1209                10.9033

                     31                     32                     33
                      A                      A                      A
 Frequencies --   1010.6024              1055.1654              1064.3204
 Red. masses --      2.2367                 1.7268                 1.5499
 Frc consts  --      1.3459                 1.1328                 1.0344
 IR Inten    --     37.1014                15.4689                60.2270

                     34                     35                     36
                      A                      A                      A
 Frequencies --   1072.3812              1097.5388              1118.2525
 Red. masses --      2.8949                 2.4378                 4.8622
 Frc consts  --      1.9615                 1.7302                 3.5823
 IR Inten    --     79.4721                78.5053               303.8846

                     37                     38                     39
                      A                      A                      A
 Frequencies --   1149.7552              1160.8647              1169.3089
 Red. masses --      2.3518                 2.5989                 2.3283
 Frc consts  --      1.8318                 2.0635                 1.8756
 IR Inten    --     10.5494               121.3637                17.5676

                     40                     41                     42
                      A                      A                      A
 Frequencies --   1186.6894              1202.0659              1210.1750
 Red. masses --      2.3971                 1.4797                 1.5298
 Frc consts  --      1.9889                 1.2597                 1.3201
 IR Inten    --      1.8074                 6.7464                40.1119

                     43                     44                     45
                      A                      A                      A
 Frequencies --   1235.9038              1248.6943              1265.3823
 Red. masses --      1.6066                 1.5229                 3.3345
 Frc consts  --      1.4459                 1.3990                 3.1458
 IR Inten    --     34.1671                55.2323               363.1059

                     46                     47                     48
                      A                      A                      A
 Frequencies --   1287.3611              1303.6871              1320.0244
 Red. masses --      1.2423                 1.1902                 1.2741
 Frc consts  --      1.2130                 1.1918                 1.3080
 IR Inten    --     22.9489                30.5479                33.0021

                     49                     50                     51
                      A                      A                      A
 Frequencies --   1330.6751              1340.1505              1357.7358
 Red. masses --      1.3122                 1.2569                 1.2979
 Frc consts  --      1.3690                 1.3300                 1.4097
 IR Inten    --     10.6221                11.8519                 4.7793

                     52                     53                     54
                      A                      A                      A
 Frequencies --   1365.5115              1369.0866              1382.2290
 Red. masses --      1.3014                 1.3481                 1.4132
 Frc consts  --      1.4297                 1.4888                 1.5908
 IR Inten    --      6.0221                14.6905                 9.7023

                     55                     56                     57
                      A                      A                      A
 Frequencies --   1386.0799              1390.0084              1406.1174
 Red. masses --      1.5040                 1.5159                 1.2847
 Frc consts  --      1.7025                 1.7256                 1.4966
 IR Inten    --      3.5676                46.9544                 2.7910

                     58                     59                     60
                      A                      A                      A
 Frequencies --   1414.9095              1426.0280              1437.4093
 Red. masses --      1.3766                 1.2985                 1.4153
 Frc consts  --      1.6237                 1.5558                 1.7229
 IR Inten    --      9.7179                12.9926                 5.1080

                     61                     62                     63
                      A                      A                      A
 Frequencies --   1440.7463              1470.3231              1470.9197
 Red. masses --      1.4837                 1.1082                 1.0966
 Frc consts  --      1.8145                 1.4115                 1.3979
 IR Inten    --     62.7368                 4.6712                 9.7444

                     64                     65                     66
                      A                      A                      A
 Frequencies --   1475.5955              1489.5548              1490.4540
 Red. masses --      1.1052                 1.1255                 1.1257
 Frc consts  --      1.4178                 1.4713                 1.4733
 IR Inten    --      6.9041                 7.2942                27.9412

                     67                     68                     69
                      A                      A                      A
 Frequencies --   1497.4995              1505.5227              1506.7193
 Red. masses --      1.0877                 1.1031                 1.0964
 Frc consts  --      1.4372                 1.4732                 1.4665
 IR Inten    --      0.6102                 9.8161                 7.1987

                     70                     71                     72
                      A                      A                      A
 Frequencies --   3025.3868              3034.9600              3036.1939
 Red. masses --      1.0836                 1.0681                 1.0696
 Frc consts  --      5.8436                 5.7965                 5.8093
 IR Inten    --     69.8649                37.8770                95.2087

                     73                     74                     75
                      A                      A                      A
 Frequencies --   3037.6075              3060.1907              3062.7294
 Red. masses --      1.0701                 1.0657                 1.0680
 Frc consts  --      5.8176                 5.8798                 5.9025
 IR Inten    --     83.4783                29.8267                28.8287

                     76                     77                     78
                      A                      A                      A
 Frequencies --   3070.8009              3072.2849              3082.7417
 Red. masses --      1.0616                 1.0623                 1.0627
 Frc consts  --      5.8982                 5.9079                 5.9504
 IR Inten    --     46.0458                41.6023                26.7983

                     79                     80                     81
                      A                      A                      A
 Frequencies --   3110.7380              3120.1909              3121.9051
 Red. masses --      1.0862                 1.0975                 1.0977
 Frc consts  --      6.1928                 6.2952                 6.3032
 IR Inten    --     25.2159                30.3992                28.3172

                     82                     83                     84
                      A                      A                      A
 Frequencies --   3123.6661              3125.5674              3139.4473
 Red. masses --      1.1019                 1.0991                 1.0963
 Frc consts  --      6.3344                 6.3263                 6.3666
 IR Inten    --     42.2075                95.5808                35.7467

                     85                     86                     87
                      A                      A                      A
 Frequencies --   3141.2358              3141.4724              3143.0726
 Red. masses --      1.0965                 1.0975                 1.1021
 Frc consts  --      6.3748                 6.3814                 6.4145
 IR Inten    --     42.9373                52.9648                38.3343

 - Thermochemistry -
 -------------------
 Temperature   298.150 Kelvin.  Pressure   1.00000 Atm.
 Atom     1 has atomic number  6 and mass  12.00000

 Molecular mass:   186.12559 amu.
 Principal axes and moments of inertia in atomic units:
                           1         2         3
     Eigenvalues --   875.897844824.882985236.57164
           X            0.99998   0.00083   0.00700
           Y           -0.00080   0.99999  -0.00421
           Z           -0.00700   0.00420   0.99997
 This molecule is an asymmetric top.
 Rotational symmetry number  1.
 Warning -- assumption of classical behavior for rotation
           may cause significant error
 Rotational temperatures (Kelvin)      0.09889     0.01795     0.01654
 Rotational constants (GHZ):           2.06045     0.37405     0.34464
    1 imaginary frequencies ignored.
 Zero-point vibrational energy     737256.8 (Joules/Mol)
                                  176.20860 (Kcal/Mol)
 Warning -- explicit consideration of  17 degrees of freedom as
           vibrations may cause significant error
 Vibrational temperatures:     95.22   123.01   229.13   303.56   356.01
          (Kelvin)            375.25   409.41   433.73   518.75   534.47
                              616.14   655.31   678.04   694.76   725.44
                              794.85   861.53   945.84  1190.10  1199.72
                             1240.08  1257.31  1268.49  1295.49  1343.97
                             1356.92  1386.87  1409.46  1438.16  1454.03
                             1518.15  1531.32  1542.92  1579.11  1608.92
                             1654.24  1670.23  1682.37  1707.38  1729.50
                             1741.17  1778.19  1796.59  1820.60  1852.23
                             1875.71  1899.22  1914.54  1928.18  1953.48
                             1964.67  1969.81  1988.72  1994.26  1999.91
                             2023.09  2035.74  2051.74  2068.11  2072.91
                             2115.47  2116.33  2123.05  2143.14  2144.43
                             2154.57  2166.11  2167.83  4352.86  4366.63
                             4368.41  4370.44  4402.93  4406.58  4418.20
                             4420.33  4435.38  4475.66  4489.26  4491.73
                             4494.26  4496.99  4516.96  4519.54  4519.88
                             4522.18

 Zero-point correction=                           0.280806 (Hartree/Particle)
 Thermal correction to Energy=                    0.291692
 Thermal correction to Enthalpy=                  0.292636
 Thermal correction to Gibbs Free Energy=         0.244174
 Sum of electronic and zero-point Energies=           -617.219158
 Sum of electronic and thermal Energies=              -617.208273
 Sum of electronic and thermal Enthalpies=            -617.207329
 Sum of electronic and thermal Free Energies=         -617.255790

                     E (Thermal)             CV                S
                      KCal/Mol        Cal/Mol-Kelvin    Cal/Mol-Kelvin
 Total                  183.039             44.867            101.996
 Electronic               0.000              0.000              0.000
 Translational            0.889              2.981             41.570
 Rotational               0.889              2.981             31.471
 Vibrational            181.262             38.905             28.955
 Vibration     1          0.598              1.970              4.264
 Vibration     2          0.601              1.959              3.761
 Vibration     3          0.621              1.892              2.559
 Vibration     4          0.643              1.824              2.035
 Vibration     5          0.661              1.767              1.749
 Vibration     6          0.669              1.744              1.656
 Vibration     7          0.683              1.702              1.506
 Vibration     8          0.693              1.671              1.409
 Vibration     9          0.735              1.554              1.120
 Vibration    10          0.743              1.531              1.074
 Vibration    11          0.790              1.409              0.864
 Vibration    12          0.814              1.349              0.779
 Vibration    13          0.828              1.314              0.734
 Vibration    14          0.839              1.288              0.702
 Vibration    15          0.859              1.241              0.648
 Vibration    16          0.908              1.134              0.539
 Vibration    17          0.957              1.034              0.452

 Optimization completed.
    -- Stationary point found.
 Normal termination of Gaussian 16 at Sun Mar 10 09:20:54 2019.
