 Gaussian 16, Revision B.01,
 Gaussian 16:  ES64L-G16RevB.01 20-Dec-2017

 ----------------------------------------------------------------------
 #M062X/6-311++G(2d,2p) opt=ModRedundant freq=noraman SCRF=(SMD,solvent
 =water)
 ----------------------------------------------------------------------

 --------------------------------
 4c1_b1_4e_4c1_PHI.inp_extract_22
 --------------------------------
 Symbolic Z-matrix:
 Charge =  0 Multiplicity = 1

 SCF Done:  E(RM062X) =  -617.504112660     A.U. after   12 cycles
 SCF Done:  E(RM062X) =  -617.505730337     A.U. after   11 cycles
 SCF Done:  E(RM062X) =  -617.505865359     A.U. after    9 cycles
 SCF Done:  E(RM062X) =  -617.505879048     A.U. after    8 cycles
 SCF Done:  E(RM062X) =  -617.505880384     A.U. after    7 cycles
 Optimization completed.
    -- Stationary point found.
 Normal termination of Gaussian 16 at Sun Mar 10 08:48:37 2019.

 ----------------------------------------------------------------------
 #N Geom=AllCheck Guess=TCheck SCRF=Check GenChk RM062X/6-311++G(2d,2p)
  Freq
 ----------------------------------------------------------------------

 Structure from the checkpoint file:  "4c1_b1_4e_4c1_PHI.inp_extract_22.chk"
 --------------------------------
 4c1_b1_4e_4c1_PHI.inp_extract_22
 --------------------------------
 Charge =  0 Multiplicity = 1

                         Standard orientation:
 ---------------------------------------------------------------------
 Center     Atomic      Atomic             Coordinates (Angstroms)
 Number     Number       Type             X           Y           Z
 ---------------------------------------------------------------------
      1          6           0        3.452264   -0.818913    0.822133
      2          6           0       -2.282465   -1.181768   -0.559437
      3          6           0       -2.977461    1.286479    0.708489
      4          8           0       -3.535311   -0.993943    0.078908
      5          8           0        1.743430    0.809423   -0.812644
      6          6           0        2.936781    1.366870   -0.254434
      7          8           0        0.003082   -0.607695   -0.598645
      8          6           0        4.000141    0.301435   -0.058078
      9          6           0       -1.585986    1.119988    0.098440
     10          6           0        1.172946   -0.168530    0.041909
     11          6           0       -3.962933    0.366969    0.010114
     12          6           0       -1.203400   -0.352073    0.117717
     13          6           0        2.128993   -1.325243    0.249757
     14          1           0        4.167346   -1.636384    0.904206
     15          1           0        3.283332   -0.433065    1.831135
     16          1           0       -2.351900   -0.892979   -1.614849
     17          1           0       -2.044424   -2.241890   -0.496873
     18          1           0       -2.952317    1.038817    1.771889
     19          1           0       -3.318100    2.317701    0.616212
     20          1           0        2.692802    1.840033    0.703481
     21          1           0        3.260299    2.139098   -0.948475
     22          1           0        4.287292   -0.097082   -1.033747
     23          1           0        4.883537    0.757631    0.389587
     24          1           0       -1.595163    1.453769   -0.942910
     25          1           0       -0.847448    1.715987    0.635760
     26          1           0        0.928550    0.303788    1.000906
     27          1           0       -4.943381    0.400147    0.480194
     28          1           0       -4.067855    0.652647   -1.042555
     29          1           0       -1.091975   -0.698880    1.150170
     30          1           0        2.288956   -1.803457   -0.719624
     31          1           0        1.657575   -2.049433    0.914879
 ---------------------------------------------------------------------

 SCF Done:  E(RM062X) =  -617.505880384     A.U. after    1 cycles

 The electronic state is 1-A.
 Alpha  occ. eigenvalues --  -19.63624 -19.63196 -19.63078 -10.63344 -10.58513
 Alpha  occ. eigenvalues --  -10.57655 -10.57526 -10.57435 -10.52587 -10.52509
 Alpha  occ. eigenvalues --  -10.52506 -10.52347 -10.52248  -1.20005  -1.16432
 Alpha  occ. eigenvalues --   -1.13826  -0.90328  -0.89540  -0.87049  -0.83613
 Alpha  occ. eigenvalues --   -0.74448  -0.73304  -0.72653  -0.69785  -0.65747
 Alpha  occ. eigenvalues --   -0.64729  -0.59605  -0.58336  -0.56128  -0.55360
 Alpha  occ. eigenvalues --   -0.54239  -0.52498  -0.51841  -0.50819  -0.49850
 Alpha  occ. eigenvalues --   -0.47665  -0.46898  -0.45824  -0.45516  -0.45036
 Alpha  occ. eigenvalues --   -0.42079  -0.41043  -0.40473  -0.39859  -0.39235
 Alpha  occ. eigenvalues --   -0.39102  -0.37531  -0.37097  -0.35076  -0.32528
 Alpha  occ. eigenvalues --   -0.32028
 Alpha virt. eigenvalues --    0.00510   0.01258   0.01393   0.01522   0.02610
 Alpha virt. eigenvalues --    0.02926   0.02988   0.04041   0.04171   0.04730
 Alpha virt. eigenvalues --    0.05007   0.05227   0.06011   0.06125   0.07080

 Mulliken charges:
               1
     1  C   -0.386313
     2  C   -0.267120
     3  C   -0.386707
     4  O   -0.384015
     5  O   -0.408634
     6  C   -0.100958
     7  O   -0.389769
     8  C   -0.358770
     9  C   -0.185195
    10  C    0.074474
    11  C   -0.219168
    12  C   -0.211502
    13  C   -0.274811
    14  H    0.192957
    15  H    0.176037
    16  H    0.202989
    17  H    0.214125
    18  H    0.173933
    19  H    0.180008
    20  H    0.148898
    21  H    0.207978
    22  H    0.165301
    23  H    0.181221
    24  H    0.231586
    25  H    0.160982
    26  H    0.270806
    27  H    0.213076
    28  H    0.158603
    29  H    0.256285
    30  H    0.203850
    31  H    0.159852
 Sum of Mulliken charges =  -0.00000

 Dipole moment (field-independent basis, Debye):
    X=              2.0890    Y=              2.0857    Z=              3.1002  Tot=              4.2808
 Quadrupole moment (field-independent basis, Debye-Ang):
   XX=            -73.3398   YY=            -79.3989   ZZ=            -81.6840
   XY=             -7.5727   XZ=              4.8795   YZ=              1.3058

  Exact polarizability: 187.111   0.608 172.719  -1.484   0.757 168.033
 Approx polarizability: 147.620   0.833 142.102  -1.494   0.263 142.556

 ******    1 imaginary frequencies (negative Signs) ******

                      1                      2                      3
                      A                      A                      A
 Frequencies --    -29.0271                57.3165                74.2110
 Red. masses --      4.1812                 3.5179                 3.5781
 Frc consts  --      0.0021                 0.0068                 0.0116
 IR Inten    --      1.9940                 3.0725                 0.6929

                      4                      5                      6
                      A                      A                      A
 Frequencies --    147.1392               205.5286               248.4144
 Red. masses --      2.8115                 3.5245                 2.0488
 Frc consts  --      0.0359                 0.0877                 0.0745
 IR Inten    --      1.0040                 5.9549                 7.9540

                      7                      8                      9
                      A                      A                      A
 Frequencies --    252.6245               263.4384               320.5895
 Red. masses --      2.0679                 4.7595                 2.4253
 Frc consts  --      0.0778                 0.1946                 0.1469
 IR Inten    --      5.6321                 1.2521                 0.5096

                     10                     11                     12
                      A                      A                      A
 Frequencies --    359.2058               397.3022               435.7071
 Red. masses --      2.1824                 2.9827                 3.0069
 Frc consts  --      0.1659                 0.2774                 0.3363
 IR Inten    --     11.1484                11.6120                 9.8678

                     13                     14                     15
                      A                      A                      A
 Frequencies --    445.9570               465.1673               497.1248
 Red. masses --      3.7676                 2.8121                 3.6270
 Frc consts  --      0.4415                 0.3585                 0.5281
 IR Inten    --      3.0566                 0.0858                 4.0932

                     16                     17                     18
                      A                      A                      A
 Frequencies --    508.8803               542.2961               592.2163
 Red. masses --      2.6853                 2.2234                 1.9579
 Frc consts  --      0.4097                 0.3853                 0.4046
 IR Inten    --      3.8815                 5.8706                14.5059

                     19                     20                     21
                      A                      A                      A
 Frequencies --    653.7644               828.0054               839.0468
 Red. masses --      2.9314                 2.2062                 1.7326
 Frc consts  --      0.7382                 0.8912                 0.7187
 IR Inten    --      6.8437                 0.3024                 4.7006

                     22                     23                     24
                      A                      A                      A
 Frequencies --    862.3063               878.1902               882.9759
 Red. masses --      1.8945                 1.3968                 1.9207
 Frc consts  --      0.8300                 0.6347                 0.8823
 IR Inten    --     17.2139                16.0494                 9.8970

                     25                     26                     27
                      A                      A                      A
 Frequencies --    899.0750               941.4814               942.2325
 Red. masses --      2.4020                 2.4488                 2.1553
 Frc consts  --      1.1440                 1.2788                 1.1274
 IR Inten    --     10.9441                47.4050                53.5482

                     28                     29                     30
                      A                      A                      A
 Frequencies --    962.8743               988.5441              1001.0987
 Red. masses --      2.0745                 2.0800                 1.4141
 Frc consts  --      1.1332                 1.1976                 0.8350
 IR Inten    --      2.4268                47.0038                 4.3604

                     31                     32                     33
                      A                      A                      A
 Frequencies --   1012.6811              1057.2131              1062.7690
 Red. masses --      2.0108                 1.6908                 1.5009
 Frc consts  --      1.2150                 1.1134                 0.9988
 IR Inten    --     14.0357                19.5947                63.0215

                     34                     35                     36
                      A                      A                      A
 Frequencies --   1089.5296              1114.3352              1135.8203
 Red. masses --      2.7212                 3.2774                 4.0655
 Frc consts  --      1.9032                 2.3978                 3.0902
 IR Inten    --     89.9445                71.3873               246.4158

                     37                     38                     39
                      A                      A                      A
 Frequencies --   1153.8075              1164.8432              1176.9938
 Red. masses --      2.2796                 2.5336                 2.4619
 Frc consts  --      1.7880                 2.0255                 2.0094
 IR Inten    --      3.4387               125.5446                42.7197

                     40                     41                     42
                      A                      A                      A
 Frequencies --   1183.8052              1208.6459              1211.3919
 Red. masses --      2.3435                 1.5520                 1.5005
 Frc consts  --      1.9350                 1.3358                 1.2974
 IR Inten    --      2.4132                47.7343                27.6373

                     43                     44                     45
                      A                      A                      A
 Frequencies --   1234.4672              1245.8280              1247.1282
 Red. masses --      2.4627                 2.0266                 1.5876
 Frc consts  --      2.2112                 1.8532                 1.4548
 IR Inten    --    311.6326               111.8001                11.3872

                     46                     47                     48
                      A                      A                      A
 Frequencies --   1281.5603              1302.7115              1319.7241
 Red. masses --      1.2358                 1.1784                 1.2256
 Frc consts  --      1.1958                 1.1782                 1.2577
 IR Inten    --      6.2509                15.2720                30.1033

                     49                     50                     51
                      A                      A                      A
 Frequencies --   1333.2150              1341.4659              1352.5759
 Red. masses --      1.2993                 1.2539                 1.3044
 Frc consts  --      1.3607                 1.3294                 1.4060
 IR Inten    --     17.3227                 2.8950                 4.0995

                     52                     53                     54
                      A                      A                      A
 Frequencies --   1359.1463              1369.1432              1380.5217
 Red. masses --      1.2316                 1.4431                 1.4419
 Frc consts  --      1.3404                 1.5938                 1.6190
 IR Inten    --     28.6332                 1.4750                11.2185

                     55                     56                     57
                      A                      A                      A
 Frequencies --   1385.7198              1395.7615              1400.7321
 Red. masses --      1.5037                 1.2991                 1.5311
 Frc consts  --      1.7013                 1.4912                 1.7700
 IR Inten    --      4.0235                14.1356                27.4706

                     58                     59                     60
                      A                      A                      A
 Frequencies --   1412.6800              1422.1716              1435.3752
 Red. masses --      1.3911                 1.3697                 1.4900
 Frc consts  --      1.6356                 1.6322                 1.8088
 IR Inten    --     15.6534                19.0714                19.9602

                     61                     62                     63
                      A                      A                      A
 Frequencies --   1453.7491              1470.0677              1471.8331
 Red. masses --      1.3788                 1.1149                 1.0975
 Frc consts  --      1.7168                 1.4196                 1.4008
 IR Inten    --     41.3830                 2.7291                 7.5623

                     64                     65                     66
                      A                      A                      A
 Frequencies --   1473.6517              1487.2215              1489.6879
 Red. masses --      1.1414                 1.1340                 1.1246
 Frc consts  --      1.4604                 1.4778                 1.4704
 IR Inten    --     20.6596                12.3529                29.9411

                     67                     68                     69
                      A                      A                      A
 Frequencies --   1498.0869              1504.3500              1506.2215
 Red. masses --      1.0859                 1.0992                 1.1032
 Frc consts  --      1.4358                 1.4656                 1.4747
 IR Inten    --      1.1184                 6.4193                 9.8209

                     70                     71                     72
                      A                      A                      A
 Frequencies --   3032.8641              3036.5134              3037.4675
 Red. masses --      1.0702                 1.0698                 1.0743
 Frc consts  --      5.8002                 5.8115                 5.8397
 IR Inten    --     50.7001                81.9186                26.4914

                     73                     74                     75
                      A                      A                      A
 Frequencies --   3038.7338              3051.7672              3059.8440
 Red. masses --      1.0783                 1.0806                 1.0687
 Frc consts  --      5.8666                 5.9293                 5.8951
 IR Inten    --     54.9665                50.2777                22.4934

                     76                     77                     78
                      A                      A                      A
 Frequencies --   3062.0167              3068.8050              3069.9819
 Red. masses --      1.0657                 1.0615                 1.0608
 Frc consts  --      5.8870                 5.8897                 5.8903
 IR Inten    --     68.6940                27.4724                60.7198

                     79                     80                     81
                      A                      A                      A
 Frequencies --   3072.9868              3114.4291              3117.7081
 Red. masses --      1.0627                 1.1009                 1.0981
 Frc consts  --      5.9125                 6.2913                 6.2888
 IR Inten    --     38.8418                44.1540                42.4593

                     82                     83                     84
                      A                      A                      A
 Frequencies --   3120.4834              3123.9939              3124.6203
 Red. masses --      1.1005                 1.1047                 1.1022
 Frc consts  --      6.3139                 6.3521                 6.3403
 IR Inten    --     42.1435                68.6416                52.4213

                     85                     86                     87
                      A                      A                      A
 Frequencies --   3139.2202              3141.1096              3142.1331
 Red. masses --      1.0963                 1.0971                 1.0961
 Frc consts  --      6.3655                 6.3779                 6.3758
 IR Inten    --     42.1618                39.6834                39.8289

 - Thermochemistry -
 -------------------
 Temperature   298.150 Kelvin.  Pressure   1.00000 Atm.
 Atom     1 has atomic number  6 and mass  12.00000

 Molecular mass:   186.12559 amu.
 Principal axes and moments of inertia in atomic units:
                           1         2         3
     Eigenvalues --   832.384864970.584365405.53807
           X            0.99994  -0.01025   0.00458
           Y            0.01020   0.99989   0.01111
           Z           -0.00469  -0.01106   0.99993
 This molecule is an asymmetric top.
 Rotational symmetry number  1.
 Warning -- assumption of classical behavior for rotation
           may cause significant error
 Rotational temperatures (Kelvin)      0.10406     0.01743     0.01602
 Rotational constants (GHZ):           2.16816     0.36308     0.33387
    1 imaginary frequencies ignored.
 Zero-point vibrational energy     736863.9 (Joules/Mol)
                                  176.11470 (Kcal/Mol)
 Warning -- explicit consideration of  17 degrees of freedom as
           vibrations may cause significant error
 Vibrational temperatures:     82.47   106.77   211.70   295.71   357.41
          (Kelvin)            363.47   379.03   461.26   516.82   571.63
                              626.89   641.63   669.27   715.25   732.17
                              780.24   852.07   940.62  1191.32  1207.20
                             1240.67  1263.52  1270.41  1293.57  1354.58
                             1355.66  1385.36  1422.29  1440.36  1457.02
                             1521.09  1529.09  1567.59  1603.28  1634.19
                             1660.07  1675.95  1693.43  1703.23  1738.97
                             1742.92  1776.12  1792.47  1794.34  1843.88
                             1874.31  1898.79  1918.20  1930.07  1946.06
                             1955.51  1969.89  1986.26  1993.74  2008.19
                             2015.34  2032.53  2046.19  2065.18  2091.62
                             2115.10  2117.64  2120.26  2139.78  2143.33
                             2155.41  2164.42  2167.12  4363.62  4368.87
                             4370.24  4372.06  4390.81  4402.43  4405.56
                             4415.33  4417.02  4421.34  4480.97  4485.69
                             4489.68  4494.73  4495.63  4516.64  4519.36
                             4520.83

 Zero-point correction=                           0.280657 (Hartree/Particle)
 Thermal correction to Energy=                    0.291596
 Thermal correction to Enthalpy=                  0.292540
 Thermal correction to Gibbs Free Energy=         0.243727
 Sum of electronic and zero-point Energies=           -617.225224
 Sum of electronic and thermal Energies=              -617.214285
 Sum of electronic and thermal Enthalpies=            -617.213340
 Sum of electronic and thermal Free Energies=         -617.262153

                     E (Thermal)             CV                S
                      KCal/Mol        Cal/Mol-Kelvin    Cal/Mol-Kelvin
 Total                  182.979             44.804            102.735
 Electronic               0.000              0.000              0.000
 Translational            0.889              2.981             41.570
 Rotational               0.889              2.981             31.481
 Vibrational            181.202             38.843             29.684
 Vibration     1          0.596              1.975              4.548
 Vibration     2          0.599              1.966              4.038
 Vibration     3          0.617              1.906              2.709
 Vibration     4          0.640              1.832              2.083
 Vibration     5          0.662              1.765              1.742
 Vibration     6          0.664              1.758              1.712
 Vibration     7          0.670              1.740              1.639
 Vibration     8          0.706              1.634              1.307
 Vibration     9          0.734              1.556              1.126
 Vibration    10          0.764              1.476              0.973
 Vibration    11          0.796              1.392              0.840
 Vibration    12          0.805              1.370              0.808
 Vibration    13          0.823              1.327              0.751
 Vibration    14          0.853              1.256              0.665
 Vibration    15          0.864              1.230              0.636
 Vibration    16          0.897              1.157              0.560
 Vibration    17          0.950              1.048              0.463

 Optimization completed.
    -- Stationary point found.
 Normal termination of Gaussian 16 at Sun Mar 10 09:49:50 2019.
