 Gaussian 16, Revision B.01,
 Gaussian 16:  ES64L-G16RevB.01 20-Dec-2017

 ----------------------------------------------------------------------
 #M062X/6-311++G(2d,2p) opt=ModRedundant freq=noraman SCRF=(SMD,solvent
 =water)
 ----------------------------------------------------------------------

 -------------------------------
 4c1_b1_4e_4c1_PHI.inp_extract_8
 -------------------------------
 Symbolic Z-matrix:
 Charge =  0 Multiplicity = 1

 SCF Done:  E(RM062X) =  -617.500204881     A.U. after   12 cycles
 SCF Done:  E(RM062X) =  -617.501791061     A.U. after   10 cycles
 SCF Done:  E(RM062X) =  -617.501924926     A.U. after   10 cycles
 SCF Done:  E(RM062X) =  -617.501996141     A.U. after    9 cycles
 SCF Done:  E(RM062X) =  -617.501998426     A.U. after    8 cycles
 SCF Done:  E(RM062X) =  -617.501998594     A.U. after    7 cycles
 Optimization completed.
    -- Stationary point found.
 Normal termination of Gaussian 16 at Sun Mar 10 07:10:12 2019.

 ----------------------------------------------------------------------
 #N Geom=AllCheck Guess=TCheck SCRF=Check GenChk RM062X/6-311++G(2d,2p)
  Freq
 ----------------------------------------------------------------------

 Structure from the checkpoint file:  "4c1_b1_4e_4c1_PHI.inp_extract_8.chk"
 -------------------------------
 4c1_b1_4e_4c1_PHI.inp_extract_8
 -------------------------------
 Charge =  0 Multiplicity = 1

                         Standard orientation:
 ---------------------------------------------------------------------
 Center     Atomic      Atomic             Coordinates (Angstroms)
 Number     Number       Type             X           Y           Z
 ---------------------------------------------------------------------
      1          6           0        3.473297    0.908672    0.294296
      2          6           0       -1.690530   -1.032126   -0.604173
      3          6           0       -3.208291    0.923301    0.826433
      4          8           0       -2.750416   -1.395936    0.269111
      5          8           0        1.352112   -0.974839   -0.126677
      6          6           0        2.690273   -1.442044    0.070340
      7          8           0       -0.009158    0.630600   -1.075609
      8          6           0        3.484177   -0.477816    0.932018
      9          6           0       -2.029143    1.369392   -0.036703
     10          6           0        1.327060    0.260648   -0.813270
     11          6           0       -3.763654   -0.392369    0.311743
     12          6           0       -1.009519    0.246899   -0.131139
     13          6           0        2.034473    1.330612    0.000653
     14          1           0        3.960318    1.639518    0.938598
     15          1           0        4.035732    0.876804   -0.642949
     16          1           0       -2.079920   -0.870681   -1.616695
     17          1           0       -0.990789   -1.863585   -0.621529
     18          1           0       -2.884142    0.790491    1.860929
     19          1           0       -3.997066    1.675665    0.819974
     20          1           0        3.171300   -1.564101   -0.906333
     21          1           0        2.597913   -2.420587    0.535644
     22          1           0        3.032468   -0.435969    1.925736
     23          1           0        4.501724   -0.853436    1.042980
     24          1           0       -2.378542    1.602747   -1.046501
     25          1           0       -1.556196    2.263634    0.369891
     26          1           0        1.805520    0.139235   -1.790780
     27          1           0       -4.546274   -0.777139    0.962212
     28          1           0       -4.176367   -0.261992   -0.695104
     29          1           0       -0.562676    0.077977    0.850075
     30          1           0        1.477064    1.463737    0.932274
     31          1           0        2.000778    2.268068   -0.554211
 ---------------------------------------------------------------------

 SCF Done:  E(RM062X) =  -617.501998594     A.U. after    1 cycles

 The electronic state is 1-A.
 Alpha  occ. eigenvalues --  -19.63286 -19.63198 -19.63017 -10.63411 -10.58200
 Alpha  occ. eigenvalues --  -10.57649 -10.57349 -10.57200 -10.52488 -10.52478
 Alpha  occ. eigenvalues --  -10.52427 -10.52258 -10.52205  -1.19890  -1.16211
 Alpha  occ. eigenvalues --   -1.13537  -0.90388  -0.89503  -0.86559  -0.83723
 Alpha  occ. eigenvalues --   -0.74489  -0.73737  -0.72377  -0.69338  -0.66024
 Alpha  occ. eigenvalues --   -0.64002  -0.59785  -0.57933  -0.56090  -0.55787
 Alpha  occ. eigenvalues --   -0.53602  -0.52309  -0.51574  -0.51043  -0.49522
 Alpha  occ. eigenvalues --   -0.48382  -0.46468  -0.45441  -0.45148  -0.44154
 Alpha  occ. eigenvalues --   -0.42747  -0.41981  -0.40315  -0.39446  -0.39308
 Alpha  occ. eigenvalues --   -0.38056  -0.37841  -0.36955  -0.35635  -0.32636
 Alpha  occ. eigenvalues --   -0.30822
 Alpha virt. eigenvalues --    0.00455   0.01255   0.01327   0.01577   0.02633
 Alpha virt. eigenvalues --    0.02899   0.03047   0.03848   0.04133   0.04914
 Alpha virt. eigenvalues --    0.05034   0.05088   0.06015   0.06076   0.07537

 Mulliken charges:
               1
     1  C   -0.432573
     2  C   -0.367721
     3  C   -0.367874
     4  O   -0.374078
     5  O   -0.375866
     6  C   -0.185834
     7  O   -0.341450
     8  C   -0.277353
     9  C   -0.252854
    10  C   -0.318632
    11  C   -0.159961
    12  C   -0.008552
    13  C   -0.040117
    14  H    0.171811
    15  H    0.188440
    16  H    0.194939
    17  H    0.226132
    18  H    0.165632
    19  H    0.194277
    20  H    0.169257
    21  H    0.196718
    22  H    0.161412
    23  H    0.181453
    24  H    0.209543
    25  H    0.161083
    26  H    0.264031
    27  H    0.211267
    28  H    0.153675
    29  H    0.293875
    30  H    0.174612
    31  H    0.184707
 Sum of Mulliken charges =  -0.00000

 Dipole moment (field-independent basis, Debye):
    X=              2.5273    Y=              2.0750    Z=              0.6067  Tot=              3.3258
 Quadrupole moment (field-independent basis, Debye-Ang):
   XX=            -64.2950   YY=            -83.4256   ZZ=            -80.4481
   XY=             -7.7708   XZ=              0.1731   YZ=              2.9404

  Exact polarizability: 186.848  -3.476 171.947  -2.403  -1.340 168.773
 Approx polarizability: 148.568  -2.418 141.420  -2.141  -2.423 142.193

                      1                      2                      3
                      A                      A                      A
 Frequencies --     16.6059                55.1197                78.1495
 Red. masses --      3.9670                 3.5412                 3.6944
 Frc consts  --      0.0006                 0.0063                 0.0133
 IR Inten    --      4.2198                 2.3266                 1.7047

                      4                      5                      6
                      A                      A                      A
 Frequencies --    141.1082               210.6807               243.3099
 Red. masses --      2.8987                 2.9207                 2.2039
 Frc consts  --      0.0340                 0.0764                 0.0769
 IR Inten    --      0.9725                 1.3715                 3.7625

                      7                      8                      9
                      A                      A                      A
 Frequencies --    251.8407               274.7587               335.1867
 Red. masses --      2.2755                 3.5446                 3.2287
 Frc consts  --      0.0850                 0.1577                 0.2137
 IR Inten    --      9.6855                 5.4390                 2.3573

                     10                     11                     12
                      A                      A                      A
 Frequencies --    351.9833               373.4564               441.1354
 Red. masses --      2.0481                 3.2393                 2.4034
 Frc consts  --      0.1495                 0.2662                 0.2756
 IR Inten    --      4.4456                26.7250                 4.2895

                     13                     14                     15
                      A                      A                      A
 Frequencies --    450.2970               454.4717               481.3426
 Red. masses --      3.3974                 4.0899                 2.4441
 Frc consts  --      0.4059                 0.4977                 0.3336
 IR Inten    --      4.7913                 3.0709                 5.5627

                     16                     17                     18
                      A                      A                      A
 Frequencies --    498.4937               555.0495               597.7931
 Red. masses --      3.3496                 1.8036                 2.1618
 Frc consts  --      0.4904                 0.3274                 0.4552
 IR Inten    --      9.9082                 6.8617                 5.0583

                     19                     20                     21
                      A                      A                      A
 Frequencies --    663.9212               831.5723               839.2666
 Red. masses --      3.5780                 2.1485                 1.7892
 Frc consts  --      0.9292                 0.8754                 0.7425
 IR Inten    --      8.9971                 0.3519                 1.9958

                     22                     23                     24
                      A                      A                      A
 Frequencies --    854.4916               878.3615               882.4804
 Red. masses --      1.6946                 1.3921                 2.2270
 Frc consts  --      0.7290                 0.6328                 1.0218
 IR Inten    --     23.7118                12.6312                 0.1614

                     25                     26                     27
                      A                      A                      A
 Frequencies --    898.7625               941.0042               950.9195
 Red. masses --      2.3319                 2.3588                 2.3202
 Frc consts  --      1.1098                 1.2306                 1.2361
 IR Inten    --     13.1318                32.8379                29.1426

                     28                     29                     30
                      A                      A                      A
 Frequencies --    961.5723               977.3422               995.5374
 Red. masses --      1.7916                 2.4275                 1.5018
 Frc consts  --      0.9760                 1.3662                 0.8769
 IR Inten    --      7.3721                44.8752                 7.8124

                     31                     32                     33
                      A                      A                      A
 Frequencies --   1005.2700              1048.5901              1063.2371
 Red. masses --      2.0038                 1.8482                 2.1328
 Frc consts  --      1.1931                 1.1973                 1.4206
 IR Inten    --     32.1548                38.2145                33.6100

                     34                     35                     36
                      A                      A                      A
 Frequencies --   1066.4421              1100.0982              1146.2924
 Red. masses --      1.6097                 2.8949                 2.9548
 Frc consts  --      1.0786                 2.0642                 2.2875
 IR Inten    --     25.6343               121.4233               181.4605

                     37                     38                     39
                      A                      A                      A
 Frequencies --   1148.2743              1151.7936              1161.9720
 Red. masses --      3.5245                 2.3352                 2.3305
 Frc consts  --      2.7380                 1.8253                 1.8539
 IR Inten    --    129.3197                 3.1512                50.8906

                     40                     41                     42
                      A                      A                      A
 Frequencies --   1188.6844              1201.7121              1215.8246
 Red. masses --      2.0741                 1.4226                 1.5621
 Frc consts  --      1.7267                 1.2104                 1.3605
 IR Inten    --      2.2780                19.5742                43.0524

                     43                     44                     45
                      A                      A                      A
 Frequencies --   1243.3465              1244.4165              1262.2812
 Red. masses --      1.5715                 1.7256                 3.3103
 Frc consts  --      1.4314                 1.5745                 3.1076
 IR Inten    --      1.6461                60.8351               423.0045

                     46                     47                     48
                      A                      A                      A
 Frequencies --   1280.8382              1303.3699              1323.6161
 Red. masses --      1.2420                 1.1879                 1.2969
 Frc consts  --      1.2005                 1.1890                 1.3387
 IR Inten    --     10.2702                34.6607                58.9258

                     49                     50                     51
                      A                      A                      A
 Frequencies --   1330.0077              1343.1299              1349.6038
 Red. masses --      1.3065                 1.2756                 1.3040
 Frc consts  --      1.3616                 1.3558                 1.3993
 IR Inten    --     12.5699                 4.5426                 9.7443

                     52                     53                     54
                      A                      A                      A
 Frequencies --   1356.2334              1367.2244              1380.5333
 Red. masses --      1.2175                 1.4106                 1.4416
 Frc consts  --      1.3194                 1.5536                 1.6188
 IR Inten    --     19.0986                 0.6654                 4.0491

                     55                     56                     57
                      A                      A                      A
 Frequencies --   1386.3754              1394.1371              1397.5912
 Red. masses --      1.5182                 1.4857                 1.3337
 Frc consts  --      1.7193                 1.7013                 1.5349
 IR Inten    --      4.8868                 1.3198                22.3249

                     58                     59                     60
                      A                      A                      A
 Frequencies --   1414.3630              1426.5413              1428.0152
 Red. masses --      1.4203                 1.4227                 1.4024
 Frc consts  --      1.6739                 1.7058                 1.6850
 IR Inten    --     19.1715                36.0468                56.9493

                     61                     62                     63
                      A                      A                      A
 Frequencies --   1434.0919              1468.6096              1470.4874
 Red. masses --      1.4809                 1.1143                 1.0943
 Frc consts  --      1.7944                 1.4159                 1.3942
 IR Inten    --     16.3104                 3.6932                 8.8952

                     64                     65                     66
                      A                      A                      A
 Frequencies --   1471.1397              1486.3870              1487.2421
 Red. masses --      1.1046                 1.1252                 1.1215
 Frc consts  --      1.4085                 1.4647                 1.4615
 IR Inten    --      9.6128                15.0576                25.4993

                     67                     68                     69
                      A                      A                      A
 Frequencies --   1497.2394              1504.7028              1505.0852
 Red. masses --      1.0834                 1.0993                 1.1016
 Frc consts  --      1.4309                 1.4665                 1.4703
 IR Inten    --      1.2960                10.5519                 6.7006

                     70                     71                     72
                      A                      A                      A
 Frequencies --   3030.9928              3035.6350              3039.5414
 Red. masses --      1.0701                 1.0696                 1.0703
 Frc consts  --      5.7921                 5.8071                 5.8258
 IR Inten    --     55.9836                78.6473                58.7422

                     73                     74                     75
                      A                      A                      A
 Frequencies --   3048.8043              3057.7654              3058.0886
 Red. masses --      1.0837                 1.0692                 1.0646
 Frc consts  --      5.9350                 5.8898                 5.8661
 IR Inten    --     69.6425                18.2017                25.9564

                     76                     77                     78
                      A                      A                      A
 Frequencies --   3064.5251              3069.7263              3071.7335
 Red. masses --      1.0642                 1.0618                 1.0627
 Frc consts  --      5.8882                 5.8951                 5.9077
 IR Inten    --     65.5604                50.4162                37.0970

                     79                     80                     81
                      A                      A                      A
 Frequencies --   3092.2832              3116.0120              3118.4207
 Red. masses --      1.0838                 1.0996                 1.0958
 Frc consts  --      6.1058                 6.2905                 6.2784
 IR Inten    --     34.1116                50.5447                41.9406

                     82                     83                     84
                      A                      A                      A
 Frequencies --   3121.8135              3123.6044              3125.0950
 Red. masses --      1.1020                 1.1023                 1.1023
 Frc consts  --      6.3277                 6.3369                 6.3425
 IR Inten    --     55.3266                55.1949                60.1655

                     85                     86                     87
                      A                      A                      A
 Frequencies --   3138.2748              3143.8865              3160.2339
 Red. masses --      1.0964                 1.0963                 1.0949
 Frc consts  --      6.3621                 6.3844                 6.4425
 IR Inten    --     44.7758                40.3682                25.4590

 - Thermochemistry -
 -------------------
 Temperature   298.150 Kelvin.  Pressure   1.00000 Atm.
 Atom     1 has atomic number  6 and mass  12.00000

 Molecular mass:   186.12559 amu.
 Principal axes and moments of inertia in atomic units:
                           1         2         3
     Eigenvalues --   972.128444386.392684819.47919
           X            0.99997  -0.00777   0.00216
           Y            0.00771   0.99960   0.02718
           Z           -0.00237  -0.02716   0.99963
 This molecule is an asymmetric top.
 Rotational symmetry number  1.
 Warning -- assumption of classical behavior for rotation
           may cause significant error
 Rotational temperatures (Kelvin)      0.08910     0.01975     0.01797
 Rotational constants (GHZ):           1.85648     0.41144     0.37447
 Zero-point vibrational energy     736643.9 (Joules/Mol)
                                  176.06213 (Kcal/Mol)
 Warning -- explicit consideration of  18 degrees of freedom as
           vibrations may cause significant error
 Vibrational temperatures:     23.89    79.30   112.44   203.02   303.12
          (Kelvin)            350.07   362.34   395.32   482.26   506.43
                              537.32   634.70   647.88   653.88   692.54
                              717.22   798.59   860.09   955.23  1196.45
                             1207.52  1229.42  1263.77  1269.69  1293.12
                             1353.90  1368.16  1383.49  1406.18  1432.36
                             1446.36  1508.69  1529.76  1534.37  1582.80
                             1649.26  1652.11  1657.17  1671.82  1710.25
                             1729.00  1749.30  1788.90  1790.44  1816.14
                             1842.84  1875.26  1904.39  1913.58  1932.46
                             1941.78  1951.32  1967.13  1986.28  1994.69
                             2005.85  2010.82  2034.95  2052.47  2054.60
                             2063.34  2113.00  2115.70  2116.64  2138.58
                             2139.81  2154.19  2164.93  2165.48  4360.92
                             4367.60  4373.22  4386.55  4399.44  4399.91
                             4409.17  4416.65  4419.54  4449.11  4483.25
                             4486.71  4491.59  4494.17  4496.31  4515.28
                             4523.35  4546.87

 Zero-point correction=                           0.280573 (Hartree/Particle)
 Thermal correction to Energy=                    0.292440
 Thermal correction to Enthalpy=                  0.293384
 Thermal correction to Gibbs Free Energy=         0.241248
 Sum of electronic and zero-point Energies=           -617.221426
 Sum of electronic and thermal Energies=              -617.209559
 Sum of electronic and thermal Enthalpies=            -617.208615
 Sum of electronic and thermal Free Energies=         -617.260750

                     E (Thermal)             CV                S
                      KCal/Mol        Cal/Mol-Kelvin    Cal/Mol-Kelvin
 Total                  183.509             46.895            109.728
 Electronic               0.000              0.000              0.000
 Translational            0.889              2.981             41.570
 Rotational               0.889              2.981             31.397
 Vibrational            181.731             40.933             36.761
 Vibration     1          0.593              1.986              7.004
 Vibration     2          0.596              1.976              4.625
 Vibration     3          0.599              1.964              3.937
 Vibration     4          0.615              1.912              2.789
 Vibration     5          0.643              1.825              2.038
 Vibration     6          0.659              1.774              1.779
 Vibration     7          0.664              1.760              1.718
 Vibration     8          0.677              1.720              1.566
 Vibration     9          0.716              1.605              1.235
 Vibration    10          0.729              1.571              1.157
 Vibration    11          0.745              1.527              1.066
 Vibration    12          0.801              1.380              0.823
 Vibration    13          0.809              1.360              0.795
 Vibration    14          0.813              1.351              0.782
 Vibration    15          0.838              1.291              0.706
 Vibration    16          0.854              1.253              0.662
 Vibration    17          0.910              1.129              0.534
 Vibration    18          0.956              1.036              0.453

 Optimization completed.
    -- Stationary point found.
 Normal termination of Gaussian 16 at Sun Mar 10 08:13:04 2019.
