 Gaussian 16, Revision B.01,
 Gaussian 16:  ES64L-G16RevB.01 20-Dec-2017

 ----------------------------------------------------------------------
 #M062X/6-311++G(2d,2p) opt=ModRedundant freq=noraman SCRF=(SMD,solvent
 =water)
 ----------------------------------------------------------------------

 --------------------------------
 4c1_b1_4e_4c1_PHI.inp_extract_19
 --------------------------------
 Symbolic Z-matrix:
 Charge =  0 Multiplicity = 1

 SCF Done:  E(RM062X) =  -617.502688290     A.U. after   12 cycles
 SCF Done:  E(RM062X) =  -617.504328161     A.U. after   10 cycles
 SCF Done:  E(RM062X) =  -617.504435373     A.U. after    9 cycles
 SCF Done:  E(RM062X) =  -617.504460525     A.U. after    9 cycles
 SCF Done:  E(RM062X) =  -617.504478472     A.U. after    9 cycles
 SCF Done:  E(RM062X) =  -617.504509727     A.U. after   10 cycles
 SCF Done:  E(RM062X) =  -617.504506067     A.U. after   10 cycles
 SCF Done:  E(RM062X) =  -617.504525639     A.U. after    9 cycles
 SCF Done:  E(RM062X) =  -617.504520944     A.U. after    9 cycles
 SCF Done:  E(RM062X) =  -617.504524773     A.U. after    9 cycles
 SCF Done:  E(RM062X) =  -617.504528004     A.U. after    9 cycles
 SCF Done:  E(RM062X) =  -617.504528371     A.U. after    8 cycles
 SCF Done:  E(RM062X) =  -617.504528507     A.U. after    8 cycles
 SCF Done:  E(RM062X) =  -617.504528525     A.U. after    7 cycles
 Optimization completed.
    -- Stationary point found.
 Normal termination of Gaussian 16 at Sun Mar 10 09:09:12 2019.

 ----------------------------------------------------------------------
 #N Geom=AllCheck Guess=TCheck SCRF=Check GenChk RM062X/6-311++G(2d,2p)
  Freq
 ----------------------------------------------------------------------

 Structure from the checkpoint file:  "4c1_b1_4e_4c1_PHI.inp_extract_19.chk"
 --------------------------------
 4c1_b1_4e_4c1_PHI.inp_extract_19
 --------------------------------
 Charge =  0 Multiplicity = 1

                         Standard orientation:
 ---------------------------------------------------------------------
 Center     Atomic      Atomic             Coordinates (Angstroms)
 Number     Number       Type             X           Y           Z
 ---------------------------------------------------------------------
      1          6           0       -3.013800    1.303352    0.665563
      2          6           0        1.799489    0.981202   -0.664767
      3          6           0        3.463939   -0.879217    0.729566
      4          8           0        3.013648    1.379446   -0.046443
      5          8           0       -2.164967   -1.142352   -0.577105
      6          6           0       -3.452589   -1.066657    0.041965
      7          8           0       -0.019783   -0.578381   -0.612370
      8          6           0       -4.001130    0.347913    0.000932
      9          6           0        2.130591   -1.352208    0.151773
     10          6           0       -1.220465   -0.325164    0.079829
     11          6           0        3.973042    0.322166   -0.046445
     12          6           0        1.162911   -0.183815    0.082912
     13          6           0       -1.630484    1.134574    0.037237
     14          1           0       -3.347054    2.336160    0.573723
     15          1           0       -2.954851    1.075092    1.733187
     16          1           0        1.989656    0.677449   -1.701104
     17          1           0        1.139883    1.847154   -0.666914
     18          1           0        3.337824   -0.596989    1.777095
     19          1           0        4.205873   -1.676663    0.687938
     20          1           0       -3.367094   -1.410405    1.078665
     21          1           0       -4.085383   -1.762992   -0.502995
     22          1           0       -4.158132    0.638312   -1.040294
     23          1           0       -4.968544    0.368736    0.503367
     24          1           0        2.280341   -1.730186   -0.863383
     25          1           0        1.700865   -2.155772    0.750108
     26          1           0       -1.121843   -0.666128    1.120191
     27          1           0        4.876323    0.732083    0.400215
     28          1           0        4.190189    0.040601   -1.082992
     29          1           0        0.909047    0.143510    1.095151
     30          1           0       -1.642810    1.446509   -1.010041
     31          1           0       -0.884506    1.730948    0.564025
 ---------------------------------------------------------------------

 SCF Done:  E(RM062X) =  -617.504528525     A.U. after    1 cycles

 The electronic state is 1-A.
 Alpha  occ. eigenvalues --  -19.63506 -19.63333 -19.63116 -10.63522 -10.58498
 Alpha  occ. eigenvalues --  -10.57641 -10.57468 -10.57416 -10.52564 -10.52559
 Alpha  occ. eigenvalues --  -10.52510 -10.52381 -10.52283  -1.20147  -1.16356
 Alpha  occ. eigenvalues --   -1.13883  -0.90175  -0.89784  -0.86686  -0.83836
 Alpha  occ. eigenvalues --   -0.73997  -0.73523  -0.73035  -0.69676  -0.65797
 Alpha  occ. eigenvalues --   -0.64659  -0.59770  -0.58322  -0.56238  -0.54784
 Alpha  occ. eigenvalues --   -0.54459  -0.52518  -0.51836  -0.50860  -0.49888
 Alpha  occ. eigenvalues --   -0.47973  -0.46373  -0.46010  -0.45476  -0.45214
 Alpha  occ. eigenvalues --   -0.42207  -0.41628  -0.40101  -0.39728  -0.39359
 Alpha  occ. eigenvalues --   -0.38410  -0.37870  -0.37265  -0.35657  -0.32747
 Alpha  occ. eigenvalues --   -0.31174
 Alpha virt. eigenvalues --    0.00542   0.01251   0.01344   0.01648   0.02649
 Alpha virt. eigenvalues --    0.02865   0.03007   0.04217   0.04323   0.04719
 Alpha virt. eigenvalues --    0.04938   0.05241   0.05859   0.06229   0.07209

 Mulliken charges:
               1
     1  C   -0.484041
     2  C   -0.343806
     3  C   -0.393218
     4  O   -0.371204
     5  O   -0.429833
     6  C   -0.082802
     7  O   -0.395586
     8  C   -0.355151
     9  C   -0.253340
    10  C   -0.074249
    11  C   -0.152357
    12  C   -0.034030
    13  C   -0.161163
    14  H    0.172380
    15  H    0.188217
    16  H    0.198368
    17  H    0.223946
    18  H    0.166643
    19  H    0.192827
    20  H    0.144168
    21  H    0.222996
    22  H    0.164539
    23  H    0.184944
    24  H    0.213754
    25  H    0.159028
    26  H    0.279362
    27  H    0.214298
    28  H    0.152422
    29  H    0.260924
    30  H    0.227561
    31  H    0.164402
 Sum of Mulliken charges =  -0.00000

 Dipole moment (field-independent basis, Debye):
    X=             -0.9475    Y=              0.2784    Z=              3.0557  Tot=              3.2113
 Quadrupole moment (field-independent basis, Debye-Ang):
   XX=            -66.0518   YY=            -85.2247   ZZ=            -80.7445
   XY=             -9.8216   XZ=             -4.5786   YZ=             -4.0321

  Exact polarizability: 190.661   0.382 169.314   1.136  -0.054 168.192
 Approx polarizability: 150.141   0.461 139.832   0.770   1.535 142.612

                      1                      2                      3
                      A                      A                      A
 Frequencies --     33.3486                43.5148                76.8768
 Red. masses --      3.6196                 3.7409                 3.5478
 Frc consts  --      0.0024                 0.0042                 0.0124
 IR Inten    --      4.9708                 0.4711                 2.4458

                      4                      5                      6
                      A                      A                      A
 Frequencies --    148.0572               210.7239               243.0025
 Red. masses --      3.0451                 3.1952                 2.2687
 Frc consts  --      0.0393                 0.0836                 0.0789
 IR Inten    --      0.2754                 0.7163                13.0057

                      7                      8                      9
                      A                      A                      A
 Frequencies --    252.5067               276.7838               309.0828
 Red. masses --      2.0653                 4.2163                 2.8558
 Frc consts  --      0.0776                 0.1903                 0.1607
 IR Inten    --      3.7216                 1.8290                 2.2101

                     10                     11                     12
                      A                      A                      A
 Frequencies --    355.5363               371.9926               432.7518
 Red. masses --      2.0159                 3.6980                 2.4404
 Frc consts  --      0.1501                 0.3015                 0.2693
 IR Inten    --      6.2290                20.1706                 5.6246

                     13                     14                     15
                      A                      A                      A
 Frequencies --    454.0439               458.8547               485.8739
 Red. masses --      3.7101                 2.9941                 2.8637
 Frc consts  --      0.4506                 0.3714                 0.3983
 IR Inten    --      5.1485                 0.4700                 9.0972

                     16                     17                     18
                      A                      A                      A
 Frequencies --    526.2065               540.7093               585.7420
 Red. masses --      3.0603                 2.2398                 1.9444
 Frc consts  --      0.4993                 0.3858                 0.3930
 IR Inten    --      7.2018                 8.1377                 5.1636

                     19                     20                     21
                      A                      A                      A
 Frequencies --    656.3956               833.5485               844.9219
 Red. masses --      2.8492                 2.1055                 1.8689
 Frc consts  --      0.7233                 0.8619                 0.7861
 IR Inten    --      7.8681                 1.8784                 3.8460

                     22                     23                     24
                      A                      A                      A
 Frequencies --    855.5499               877.6733               880.7237
 Red. masses --      1.7013                 1.3837                 2.1628
 Frc consts  --      0.7337                 0.6280                 0.9884
 IR Inten    --     23.1989                12.2821                 4.2942

                     25                     26                     27
                      A                      A                      A
 Frequencies --    901.7187               941.3784               950.6367
 Red. masses --      2.2947                 2.2794                 2.3364
 Frc consts  --      1.0993                 1.1902                 1.2440
 IR Inten    --      5.7962                41.1005                47.1214

                     28                     29                     30
                      A                      A                      A
 Frequencies --    960.8100               987.8910               993.4577
 Red. masses --      1.9568                 2.1602                 1.3973
 Frc consts  --      1.0643                 1.2421                 0.8125
 IR Inten    --      0.4126                45.1576                 4.7724

                     31                     32                     33
                      A                      A                      A
 Frequencies --   1011.7025              1053.4210              1067.4370
 Red. masses --      2.0065                 1.6785                 1.5987
 Frc consts  --      1.2100                 1.0974                 1.0732
 IR Inten    --     13.2921                17.4461                55.6285

                     34                     35                     36
                      A                      A                      A
 Frequencies --   1087.5471              1127.1897              1150.8495
 Red. masses --      2.7780                 3.6802                 2.2830
 Frc consts  --      1.9359                 2.7550                 1.7815
 IR Inten    --    143.0667                67.3728                 6.9223

                     37                     38                     39
                      A                      A                      A
 Frequencies --   1154.9885              1161.4188              1177.4870
 Red. masses --      3.0650                 2.5209                 1.8100
 Frc consts  --      2.4090                 2.0035                 1.4786
 IR Inten    --    150.9364                20.8972                65.4894

                     40                     41                     42
                      A                      A                      A
 Frequencies --   1184.5140              1205.6153              1212.4947
 Red. masses --      2.2990                 1.4706                 1.5184
 Frc consts  --      1.9005                 1.2594                 1.3152
 IR Inten    --      3.2590                 4.4375                89.5804

                     43                     44                     45
                      A                      A                      A
 Frequencies --   1240.1761              1259.1542              1266.5743
 Red. masses --      1.7429                 2.1267                 1.6498
 Frc consts  --      1.5794                 1.9866                 1.5594
 IR Inten    --     11.6693               214.4118               158.4593

                     46                     47                     48
                      A                      A                      A
 Frequencies --   1285.7581              1306.0038              1328.2124
 Red. masses --      1.2692                 1.2042                 1.3349
 Frc consts  --      1.2363                 1.2102                 1.3875
 IR Inten    --     33.0068                52.9839                10.0727

                     49                     50                     51
                      A                      A                      A
 Frequencies --   1336.1934              1343.8134              1347.7483
 Red. masses --      1.5112                 1.2862                 1.2992
 Frc consts  --      1.5897                 1.3685                 1.3904
 IR Inten    --     71.4644                13.8184                 1.5917

                     52                     53                     54
                      A                      A                      A
 Frequencies --   1367.0055              1368.0077              1381.0312
 Red. masses --      1.4343                 1.2889                 1.4421
 Frc consts  --      1.5792                 1.4212                 1.6206
 IR Inten    --     14.5762                16.4920                 3.3344

                     55                     56                     57
                      A                      A                      A
 Frequencies --   1387.1170              1391.9338              1403.4399
 Red. masses --      1.5157                 1.4549                 1.3070
 Frc consts  --      1.7183                 1.6608                 1.5168
 IR Inten    --      5.8038                33.1623                27.1241

                     58                     59                     60
                      A                      A                      A
 Frequencies --   1416.0969              1428.8980              1438.0688
 Red. masses --      1.4306                 1.4706                 1.5784
 Frc consts  --      1.6902                 1.7691                 1.9233
 IR Inten    --     32.2293                76.2457                45.9372

                     61                     62                     63
                      A                      A                      A
 Frequencies --   1454.6318              1469.4881              1471.0261
 Red. masses --      1.3396                 1.1213                 1.0934
 Frc consts  --      1.6701                 1.4267                 1.3940
 IR Inten    --     17.3527                 1.3723                 5.7121

                     64                     65                     66
                      A                      A                      A
 Frequencies --   1472.3292              1488.3599              1489.7076
 Red. masses --      1.1176                 1.1307                 1.1345
 Frc consts  --      1.4274                 1.4757                 1.4834
 IR Inten    --     22.0956                 6.7338                35.6991

                     67                     68                     69
                      A                      A                      A
 Frequencies --   1498.7503              1506.1061              1507.3273
 Red. masses --      1.0877                 1.1175                 1.1031
 Frc consts  --      1.4396                 1.4935                 1.4767
 IR Inten    --      0.7715                16.2245                 9.1166

                     70                     71                     72
                      A                      A                      A
 Frequencies --   3005.1952              3031.7307              3036.2796
 Red. masses --      1.0835                 1.0689                 1.0696
 Frc consts  --      5.7656                 5.7884                 5.8098
 IR Inten    --     80.4003                39.2643                84.6915

                     73                     74                     75
                      A                      A                      A
 Frequencies --   3039.6677              3058.1139              3061.0395
 Red. masses --      1.0702                 1.0712                 1.0685
 Frc consts  --      5.8258                 5.9023                 5.8986
 IR Inten    --     66.8062                 9.9014                21.5971

                     76                     77                     78
                      A                      A                      A
 Frequencies --   3067.0028              3068.1659              3070.8192
 Red. masses --      1.0763                 1.0610                 1.0615
 Frc consts  --      5.9647                 5.8849                 5.8974
 IR Inten    --     65.4631                32.2348                52.3698

                     79                     80                     81
                      A                      A                      A
 Frequencies --   3071.8972              3117.0492              3119.1897
 Red. masses --      1.0626                 1.1003                 1.0961
 Frc consts  --      5.9080                 6.2988                 6.2832
 IR Inten    --     48.3894                43.7946                34.4686

                     82                     83                     84
                      A                      A                      A
 Frequencies --   3121.3685              3124.0596              3124.2612
 Red. masses --      1.1024                 1.1044                 1.1025
 Frc consts  --      6.3284                 6.3507                 6.3404
 IR Inten    --     38.5151                67.9856                59.8244

                     85                     86                     87
                      A                      A                      A
 Frequencies --   3138.1353              3140.0529              3144.8843
 Red. masses --      1.0959                 1.0971                 1.0961
 Frc consts  --      6.3586                 6.3737                 6.3874
 IR Inten    --     39.3801                37.0430                39.3697

 - Thermochemistry -
 -------------------
 Temperature   298.150 Kelvin.  Pressure   1.00000 Atm.
 Atom     1 has atomic number  6 and mass  12.00000

 Molecular mass:   186.12559 amu.
 Principal axes and moments of inertia in atomic units:
                           1         2         3
     Eigenvalues --   838.394024949.924245443.01534
           X            0.99990  -0.01388  -0.00318
           Y            0.01380   0.99961  -0.02427
           Z            0.00352   0.02422   0.99970
 This molecule is an asymmetric top.
 Rotational symmetry number  1.
 Warning -- assumption of classical behavior for rotation
           may cause significant error
 Rotational temperatures (Kelvin)      0.10331     0.01750     0.01591
 Rotational constants (GHZ):           2.15262     0.36460     0.33157
 Zero-point vibrational energy     737359.3 (Joules/Mol)
                                  176.23311 (Kcal/Mol)
 Warning -- explicit consideration of  18 degrees of freedom as
           vibrations may cause significant error
 Vibrational temperatures:     47.98    62.61   110.61   213.02   303.18
          (Kelvin)            349.63   363.30   398.23   444.70   511.54
                              535.21   622.63   653.27   660.19   699.06
                              757.09   777.96   842.75   944.41  1199.29
                             1215.65  1230.95  1262.78  1267.16  1297.37
                             1354.43  1367.75  1382.39  1421.35  1429.36
                             1455.61  1515.64  1535.80  1564.74  1621.77
                             1655.82  1661.77  1671.02  1694.14  1704.25
                             1734.61  1744.51  1784.34  1811.64  1822.32
                             1849.92  1879.05  1911.00  1922.48  1933.45
                             1939.11  1966.82  1968.26  1987.00  1995.75
                             2002.68  2019.24  2037.45  2055.87  2069.06
                             2092.89  2114.27  2116.48  2118.35  2141.42
                             2143.36  2156.37  2166.95  2168.71  4323.81
                             4361.98  4368.53  4373.40  4399.94  4404.15
                             4412.73  4414.41  4418.22  4419.77  4484.74
                             4487.82  4490.95  4494.82  4495.11  4515.08
                             4517.84  4524.79

 Zero-point correction=                           0.280845 (Hartree/Particle)
 Thermal correction to Energy=                    0.292696
 Thermal correction to Enthalpy=                  0.293640
 Thermal correction to Gibbs Free Energy=         0.241900
 Sum of electronic and zero-point Energies=           -617.223683
 Sum of electronic and thermal Energies=              -617.211832
 Sum of electronic and thermal Enthalpies=            -617.210888
 Sum of electronic and thermal Free Energies=         -617.262629

                     E (Thermal)             CV                S
                      KCal/Mol        Cal/Mol-Kelvin    Cal/Mol-Kelvin
 Total                  183.670             46.792            108.898
 Electronic               0.000              0.000              0.000
 Translational            0.889              2.981             41.570
 Rotational               0.889              2.981             31.491
 Vibrational            181.892             40.830             35.837
 Vibration     1          0.594              1.983              5.620
 Vibration     2          0.595              1.980              5.092
 Vibration     3          0.599              1.965              3.969
 Vibration     4          0.617              1.905              2.697
 Vibration     5          0.643              1.824              2.037
 Vibration     6          0.659              1.774              1.781
 Vibration     7          0.664              1.759              1.713
 Vibration     8          0.678              1.716              1.553
 Vibration     9          0.698              1.656              1.367
 Vibration    10          0.731              1.564              1.142
 Vibration    11          0.744              1.530              1.072
 Vibration    12          0.794              1.399              0.850
 Vibration    13          0.812              1.352              0.784
 Vibration    14          0.817              1.341              0.769
 Vibration    15          0.842              1.281              0.694
 Vibration    16          0.881              1.192              0.596
 Vibration    17          0.896              1.160              0.564
 Vibration    18          0.943              1.062              0.475

 Optimization completed.
    -- Stationary point found.
 Normal termination of Gaussian 16 at Sun Mar 10 10:08:56 2019.
