 Gaussian 16, Revision B.01,
 Gaussian 16:  ES64L-G16RevB.01 20-Dec-2017

 ----------------------------------------------------------------------
 #M062X/6-311++G(2d,2p) opt=ModRedundant freq=noraman SCRF=(SMD,solvent
 =water)
 ----------------------------------------------------------------------

 -------------------------------
 4c1_b1_4e_4c1_PHI.inp_extract_7
 -------------------------------
 Symbolic Z-matrix:
 Charge =  0 Multiplicity = 1

 SCF Done:  E(RM062X) =  -617.497994263     A.U. after   12 cycles
 SCF Done:  E(RM062X) =  -617.499674147     A.U. after   10 cycles
 SCF Done:  E(RM062X) =  -617.499887842     A.U. after   10 cycles
 SCF Done:  E(RM062X) =  -617.499986718     A.U. after    9 cycles
 SCF Done:  E(RM062X) =  -617.499989233     A.U. after    8 cycles
 SCF Done:  E(RM062X) =  -617.499989739     A.U. after    7 cycles
 Optimization completed.
    -- Stationary point found.
 Normal termination of Gaussian 16 at Sun Mar 10 07:06:13 2019.

 ----------------------------------------------------------------------
 #N Geom=AllCheck Guess=TCheck SCRF=Check GenChk RM062X/6-311++G(2d,2p)
  Freq
 ----------------------------------------------------------------------

 Structure from the checkpoint file:  "4c1_b1_4e_4c1_PHI.inp_extract_7.chk"
 -------------------------------
 4c1_b1_4e_4c1_PHI.inp_extract_7
 -------------------------------
 Charge =  0 Multiplicity = 1

                         Standard orientation:
 ---------------------------------------------------------------------
 Center     Atomic      Atomic             Coordinates (Angstroms)
 Number     Number       Type             X           Y           Z
 ---------------------------------------------------------------------
      1          6           0       -3.410599   -0.089684    0.978935
      2          6           0        2.359927   -1.236078   -0.190381
      3          6           0        2.505570    1.583321    0.240161
      4          8           0        3.498109   -0.478779   -0.569590
      5          8           0       -1.368607    0.146870   -1.024919
      6          6           0       -2.723746    0.474211   -1.347099
      7          8           0        0.045492   -1.276551    0.126868
      8          6           0       -3.473999    0.965504   -0.122555
      9          6           0        1.221774    0.835140    0.600742
     10          6           0       -1.301947   -0.896206   -0.076760
     11          6           0        3.693708    0.641331    0.293797
     12          6           0        1.091280   -0.398349   -0.283143
     13          6           0       -1.955517   -0.483000    1.230262
     14          1           0       -3.869822    0.275359    1.896616
     15          1           0       -3.973159   -0.972693    0.663538
     16          1           0        2.479688   -1.600916    0.836580
     17          1           0        2.301964   -2.088484   -0.864515
     18          1           0        2.426206    1.996552   -0.767804
     19          1           0        2.671244    2.414223    0.926064
     20          1           0       -3.213363   -0.413278   -1.762709
     21          1           0       -2.668743    1.235331   -2.121873
     22          1           0       -3.015956    1.894833    0.224017
     23          1           0       -4.505159    1.184580   -0.400918
     24          1           0        1.266515    0.504931    1.642776
     25          1           0        0.351678    1.480686    0.490052
     26          1           0       -1.812941   -1.775168   -0.487931
     27          1           0        4.606558    1.128285   -0.042597
     28          1           0        3.845656    0.278571    1.316682
     29          1           0        0.950820   -0.100318   -1.322795
     30          1           0       -1.396513    0.361385    1.639378
     31          1           0       -1.883329   -1.313333    1.932808
 ---------------------------------------------------------------------

 SCF Done:  E(RM062X) =  -617.499989739     A.U. after    1 cycles

 The electronic state is 1-A.
 Alpha  occ. eigenvalues --  -19.63317 -19.63136 -19.63095 -10.63441 -10.58233
 Alpha  occ. eigenvalues --  -10.57690 -10.57499 -10.57364 -10.52483 -10.52464
 Alpha  occ. eigenvalues --  -10.52286 -10.52256 -10.52169  -1.19860  -1.16345
 Alpha  occ. eigenvalues --   -1.13515  -0.90323  -0.89403  -0.86954  -0.83667
 Alpha  occ. eigenvalues --   -0.74706  -0.73490  -0.72466  -0.69232  -0.65148
 Alpha  occ. eigenvalues --   -0.64867  -0.59819  -0.58050  -0.56422  -0.54722
 Alpha  occ. eigenvalues --   -0.54070  -0.52299  -0.51986  -0.50331  -0.50251
 Alpha  occ. eigenvalues --   -0.47846  -0.46442  -0.45685  -0.45618  -0.44837
 Alpha  occ. eigenvalues --   -0.42564  -0.40909  -0.40397  -0.39709  -0.39182
 Alpha  occ. eigenvalues --   -0.38951  -0.37334  -0.36833  -0.35336  -0.32583
 Alpha  occ. eigenvalues --   -0.30881
 Alpha virt. eigenvalues --    0.00442   0.01277   0.01386   0.01396   0.02677
 Alpha virt. eigenvalues --    0.02960   0.03066   0.03826   0.04053   0.04943
 Alpha virt. eigenvalues --    0.05141   0.05320   0.05950   0.06069   0.07255

 Mulliken charges:
               1
     1  C   -0.407076
     2  C   -0.283551
     3  C   -0.430888
     4  O   -0.390318
     5  O   -0.359858
     6  C   -0.199734
     7  O   -0.375198
     8  C   -0.282939
     9  C   -0.181310
    10  C   -0.234978
    11  C   -0.232918
    12  C   -0.119200
    13  C   -0.043159
    14  H    0.175449
    15  H    0.191496
    16  H    0.200482
    17  H    0.214701
    18  H    0.178434
    19  H    0.176241
    20  H    0.169919
    21  H    0.196946
    22  H    0.163601
    23  H    0.187994
    24  H    0.235626
    25  H    0.184394
    26  H    0.261237
    27  H    0.217246
    28  H    0.155943
    29  H    0.265166
    30  H    0.187820
    31  H    0.178430
 Sum of Mulliken charges =  -0.00000

 Dipole moment (field-independent basis, Debye):
    X=             -3.7832    Y=              2.1125    Z=              1.7395  Tot=              4.6691
 Quadrupole moment (field-independent basis, Debye-Ang):
   XX=            -74.6811   YY=            -79.2569   ZZ=            -79.9733
   XY=              5.2235   XZ=              7.0185   YZ=              0.4540

  Exact polarizability: 184.630   1.937 173.271   1.702  -1.989 168.949
 Approx polarizability: 147.248   2.221 143.806   0.909  -1.620 141.109

                      1                      2                      3
                      A                      A                      A
 Frequencies --     17.6047                62.9457                81.5812
 Red. masses --      4.0140                 3.3420                 3.7773
 Frc consts  --      0.0007                 0.0078                 0.0148
 IR Inten    --      5.9174                 1.2497                 0.3800

                      4                      5                      6
                      A                      A                      A
 Frequencies --    156.3648               186.4177               243.4896
 Red. masses --      3.0922                 3.2405                 2.2964
 Frc consts  --      0.0445                 0.0663                 0.0802
 IR Inten    --      1.3005                 4.2202                 9.1447

                      7                      8                      9
                      A                      A                      A
 Frequencies --    255.2446               271.3196               338.1926
 Red. masses --      2.0096                 3.8892                 4.4628
 Frc consts  --      0.0771                 0.1687                 0.3007
 IR Inten    --      5.5977                 0.3651                 7.9138

                     10                     11                     12
                      A                      A                      A
 Frequencies --    345.6614               378.9938               435.9924
 Red. masses --      1.8910                 2.5257                 3.3400
 Frc consts  --      0.1331                 0.2137                 0.3741
 IR Inten    --      4.0562                18.7505                 7.2443

                     13                     14                     15
                      A                      A                      A
 Frequencies --    458.5952               464.2286               481.7489
 Red. masses --      3.4410                 2.8831                 2.6098
 Frc consts  --      0.4264                 0.3661                 0.3569
 IR Inten    --      4.7398                 5.0076                 6.4434

                     16                     17                     18
                      A                      A                      A
 Frequencies --    484.1089               552.3000               605.2946
 Red. masses --      2.8720                 1.8439                 2.1633
 Frc consts  --      0.3966                 0.3314                 0.4670
 IR Inten    --      3.4623                 5.7133                13.0137

                     19                     20                     21
                      A                      A                      A
 Frequencies --    663.0711               824.6902               838.3462
 Red. masses --      3.8236                 2.1444                 1.8587
 Frc consts  --      0.9905                 0.8593                 0.7697
 IR Inten    --     10.9618                 2.1787                 2.3379

                     22                     23                     24
                      A                      A                      A
 Frequencies --    852.9962               879.1746               881.6146
 Red. masses --      1.6777                 1.3899                 2.2312
 Frc consts  --      0.7192                 0.6330                 1.0217
 IR Inten    --     25.5259                16.9309                 1.8937

                     25                     26                     27
                      A                      A                      A
 Frequencies --    898.1612               942.5926               948.1793
 Red. masses --      2.4462                 2.2105                 2.2098
 Frc consts  --      1.1627                 1.1571                 1.1706
 IR Inten    --     10.8099                62.1566                17.9653

                     28                     29                     30
                      A                      A                      A
 Frequencies --    960.5327               976.1533               998.6041
 Red. masses --      1.8633                 2.3294                 1.4555
 Frc consts  --      1.0129                 1.3077                 0.8552
 IR Inten    --      3.5987                35.8244                 7.2813

                     31                     32                     33
                      A                      A                      A
 Frequencies --   1005.2291              1054.3679              1063.1992
 Red. masses --      2.1006                 1.9002                 1.5907
 Frc consts  --      1.2506                 1.2446                 1.0594
 IR Inten    --     13.7011                21.9187                31.0718

                     34                     35                     36
                      A                      A                      A
 Frequencies --   1067.7444              1102.6300              1150.6031
 Red. masses --      2.1439                 3.0898                 2.6607
 Frc consts  --      1.4401                 2.2133                 2.0754
 IR Inten    --     35.9653               124.4140                88.0719

                     37                     38                     39
                      A                      A                      A
 Frequencies --   1158.3177              1162.0801              1169.2355
 Red. masses --      2.2892                 2.5520                 2.1364
 Frc consts  --      1.8096                 2.0305                 1.7208
 IR Inten    --     12.7120               127.9514                38.7701

                     40                     41                     42
                      A                      A                      A
 Frequencies --   1186.4006              1202.4404              1210.7945
 Red. masses --      2.4091                 1.4183                 1.4946
 Frc consts  --      1.9979                 1.2082                 1.2909
 IR Inten    --      2.1227                11.5413                23.9762

                     43                     44                     45
                      A                      A                      A
 Frequencies --   1241.2138              1245.7413              1250.6657
 Red. masses --      2.9474                 1.9530                 1.9272
 Frc consts  --      2.6753                 1.7857                 1.7761
 IR Inten    --    403.4011                80.0703               163.0564

                     46                     47                     48
                      A                      A                      A
 Frequencies --   1280.5549              1300.3917              1324.8343
 Red. masses --      1.2340                 1.1690                 1.3178
 Frc consts  --      1.1923                 1.1647                 1.3628
 IR Inten    --      8.8443                18.2621                44.9502

                     49                     50                     51
                      A                      A                      A
 Frequencies --   1332.3153              1339.3979              1350.3369
 Red. masses --      1.3112                 1.2437                 1.2458
 Frc consts  --      1.3713                 1.3146                 1.3384
 IR Inten    --     24.5457                 9.4969                16.1059

                     52                     53                     54
                      A                      A                      A
 Frequencies --   1350.4572              1366.3727              1379.8762
 Red. masses --      1.3109                 1.4216                 1.4525
 Frc consts  --      1.4086                 1.5637                 1.6295
 IR Inten    --      8.5258                 1.3816                 5.8158

                     55                     56                     57
                      A                      A                      A
 Frequencies --   1385.3542              1396.4921              1403.2603
 Red. masses --      1.5189                 1.4080                 1.3447
 Frc consts  --      1.7175                 1.6178                 1.5601
 IR Inten    --      6.3461                27.4709                12.4068

                     58                     59                     60
                      A                      A                      A
 Frequencies --   1409.4079              1426.2581              1432.2785
 Red. masses --      1.4079                 1.4407                 1.3645
 Frc consts  --      1.6478                 1.7267                 1.6492
 IR Inten    --     22.8254                24.7323                24.3729

                     61                     62                     63
                      A                      A                      A
 Frequencies --   1435.3895              1469.0176              1470.4816
 Red. masses --      1.5188                 1.1156                 1.0935
 Frc consts  --      1.8437                 1.4185                 1.3931
 IR Inten    --     27.1054                 3.9191                 7.4057

                     64                     65                     66
                      A                      A                      A
 Frequencies --   1471.6493              1486.7979              1487.9584
 Red. masses --      1.0968                 1.1227                 1.1206
 Frc consts  --      1.3995                 1.4623                 1.4618
 IR Inten    --     11.5541                16.4283                20.5332

                     67                     68                     69
                      A                      A                      A
 Frequencies --   1499.4515              1505.5857              1507.5394
 Red. masses --      1.0835                 1.1032                 1.1032
 Frc consts  --      1.4353                 1.4734                 1.4772
 IR Inten    --      0.9472                 8.2341                 9.9472

                     70                     71                     72
                      A                      A                      A
 Frequencies --   3025.4750              3034.5088              3036.1427
 Red. masses --      1.0844                 1.0681                 1.0697
 Frc consts  --      5.8482                 5.7949                 5.8096
 IR Inten    --     81.3431                47.5832                91.9416

                     73                     74                     75
                      A                      A                      A
 Frequencies --   3039.3957              3057.4170              3059.8039
 Red. masses --      1.0699                 1.0676                 1.0685
 Frc consts  --      5.8232                 5.8801                 5.8938
 IR Inten    --     72.7117                24.0006                27.1037

                     76                     77                     78
                      A                      A                      A
 Frequencies --   3068.4987              3071.7475              3076.7492
 Red. masses --      1.0619                 1.0623                 1.0607
 Frc consts  --      5.8907                 5.9055                 5.9161
 IR Inten    --     46.7532                41.0684                38.5664

                     79                     80                     81
                      A                      A                      A
 Frequencies --   3096.4528              3119.0935              3121.5678
 Red. masses --      1.0828                 1.0963                 1.1005
 Frc consts  --      6.1168                 6.2840                 6.3181
 IR Inten    --     58.3811                39.6277                74.0990

                     82                     83                     84
                      A                      A                      A
 Frequencies --   3121.7350              3128.1730              3131.7923
 Red. masses --      1.1016                 1.1030                 1.1000
 Frc consts  --      6.3253                 6.3594                 6.3568
 IR Inten    --     24.7036                34.8438                64.2976

                     85                     86                     87
                      A                      A                      A
 Frequencies --   3137.7661              3139.8236              3142.9841
 Red. masses --      1.0963                 1.0977                 1.0965
 Frc consts  --      6.3592                 6.3762                 6.3816
 IR Inten    --     43.8119                42.7143                36.2707

 - Thermochemistry -
 -------------------
 Temperature   298.150 Kelvin.  Pressure   1.00000 Atm.
 Atom     1 has atomic number  6 and mass  12.00000

 Molecular mass:   186.12559 amu.
 Principal axes and moments of inertia in atomic units:
                           1         2         3
     Eigenvalues --   938.764004511.613214669.32368
           X            0.99998   0.00462   0.00370
           Y           -0.00464   0.99998   0.00308
           Z           -0.00369  -0.00309   0.99999
 This molecule is an asymmetric top.
 Rotational symmetry number  1.
 Warning -- assumption of classical behavior for rotation
           may cause significant error
 Rotational temperatures (Kelvin)      0.09226     0.01920     0.01855
 Rotational constants (GHZ):           1.92247     0.40002     0.38651
 Zero-point vibrational energy     736752.8 (Joules/Mol)
                                  176.08815 (Kcal/Mol)
 Warning -- explicit consideration of  18 degrees of freedom as
           vibrations may cause significant error
 Vibrational temperatures:     25.33    90.56   117.38   224.97   268.21
          (Kelvin)            350.33   367.24   390.37   486.58   497.33
                              545.29   627.30   659.82   667.92   693.13
                              696.52   794.64   870.88   954.01  1186.55
                             1206.19  1227.27  1264.94  1268.45  1292.25
                             1356.18  1364.22  1381.99  1404.47  1436.77
                             1446.30  1517.00  1529.71  1536.25  1586.44
                             1655.46  1666.56  1671.97  1682.27  1706.97
                             1730.04  1742.06  1785.83  1792.34  1799.43
                             1842.43  1870.97  1906.14  1916.90  1927.09
                             1942.83  1943.01  1965.91  1985.33  1993.22
                             2009.24  2018.98  2027.82  2052.07  2060.73
                             2065.21  2113.59  2115.70  2117.38  2139.17
                             2140.84  2157.38  2166.20  2169.01  4352.98
                             4365.98  4368.33  4373.01  4398.94  4402.38
                             4414.89  4419.56  4426.76  4455.10  4487.68
                             4491.24  4491.48  4500.74  4505.95  4514.55
                             4517.51  4522.05

 Zero-point correction=                           0.280614 (Hartree/Particle)
 Thermal correction to Energy=                    0.292463
 Thermal correction to Enthalpy=                  0.293407
 Thermal correction to Gibbs Free Energy=         0.241504
 Sum of electronic and zero-point Energies=           -617.219375
 Sum of electronic and thermal Energies=              -617.207527
 Sum of electronic and thermal Enthalpies=            -617.206582
 Sum of electronic and thermal Free Energies=         -617.258486

                     E (Thermal)             CV                S
                      KCal/Mol        Cal/Mol-Kelvin    Cal/Mol-Kelvin
 Total                  183.523             46.890            109.241
 Electronic               0.000              0.000              0.000
 Translational            0.889              2.981             41.570
 Rotational               0.889              2.981             31.359
 Vibrational            181.746             40.929             36.312
 Vibration     1          0.593              1.986              6.888
 Vibration     2          0.597              1.972              4.363
 Vibration     3          0.600              1.962              3.852
 Vibration     4          0.620              1.896              2.593
 Vibration     5          0.632              1.858              2.263
 Vibration     6          0.659              1.774              1.777
 Vibration     7          0.666              1.754              1.694
 Vibration     8          0.675              1.726              1.588
 Vibration     9          0.718              1.599              1.221
 Vibration    10          0.724              1.584              1.186
 Vibration    11          0.749              1.515              1.043
 Vibration    12          0.796              1.392              0.839
 Vibration    13          0.817              1.342              0.770
 Vibration    14          0.822              1.329              0.754
 Vibration    15          0.838              1.291              0.705
 Vibration    16          0.840              1.285              0.699
 Vibration    17          0.908              1.135              0.539
 Vibration    18          0.964              1.021              0.441

 Optimization completed.
    -- Stationary point found.
 Normal termination of Gaussian 16 at Sun Mar 10 08:11:03 2019.
