 Gaussian 16, Revision B.01,
 Gaussian 16:  ES64L-G16RevB.01 20-Dec-2017

 ----------------------------------------------------------------------
 #M062X/6-311++G(2d,2p) opt=ModRedundant freq=noraman SCRF=(SMD,solvent
 =water)
 ----------------------------------------------------------------------

 --------------------------------
 4c1_b1_4e_4c1_PHI.inp_extract_15
 --------------------------------
 Symbolic Z-matrix:
 Charge =  0 Multiplicity = 1

 SCF Done:  E(RM062X) =  -617.498875723     A.U. after   12 cycles
 SCF Done:  E(RM062X) =  -617.500324944     A.U. after   10 cycles
 SCF Done:  E(RM062X) =  -617.500587978     A.U. after   10 cycles
 SCF Done:  E(RM062X) =  -617.500721787     A.U. after    9 cycles
 SCF Done:  E(RM062X) =  -617.500731479     A.U. after    8 cycles
 SCF Done:  E(RM062X) =  -617.500732237     A.U. after    8 cycles
 SCF Done:  E(RM062X) =  -617.500732621     A.U. after    7 cycles
 Optimization completed.
    -- Stationary point found.
 Normal termination of Gaussian 16 at Sun Mar 10 08:26:23 2019.

 ----------------------------------------------------------------------
 #N Geom=AllCheck Guess=TCheck SCRF=Check GenChk RM062X/6-311++G(2d,2p)
  Freq
 ----------------------------------------------------------------------

 Structure from the checkpoint file:  "4c1_b1_4e_4c1_PHI.inp_extract_15.chk"
 --------------------------------
 4c1_b1_4e_4c1_PHI.inp_extract_15
 --------------------------------
 Charge =  0 Multiplicity = 1

                         Standard orientation:
 ---------------------------------------------------------------------
 Center     Atomic      Atomic             Coordinates (Angstroms)
 Number     Number       Type             X           Y           Z
 ---------------------------------------------------------------------
      1          6           0       -2.904122    1.447801   -0.361500
      2          6           0        2.113067   -1.287870   -0.355530
      3          6           0        3.064756    1.337630    0.257994
      4          8           0        3.294998   -0.764026   -0.939604
      5          8           0       -2.163488   -1.243613    0.205580
      6          6           0       -3.527935   -0.848257    0.365599
      7          8           0       -0.007175   -0.816518    0.533715
      8          6           0       -3.874080    0.289723   -0.576809
      9          6           0        1.746298    0.853988    0.860964
     10          6           0       -1.269582   -0.188657    0.521929
     11          6           0        3.954512    0.150806   -0.063840
     12          6           0        1.114297   -0.175939   -0.064878
     13          6           0       -1.458584    0.954188   -0.460004
     14          1           0       -3.075139    2.238591   -1.090558
     15          1           0       -3.068992    1.878906    0.629511
     16          1           0        2.356056   -1.811042    0.576759
     17          1           0        1.692595   -2.000103   -1.062825
     18          1           0        2.873259    1.897817   -0.659927
     19          1           0        3.584225    2.001571    0.949032
     20          1           0       -3.691645   -0.545065    1.405460
     21          1           0       -4.122813   -1.736486    0.166117
     22          1           0       -3.802892   -0.067770   -1.606452
     23          1           0       -4.903940    0.601751   -0.401479
     24          1           0        1.936106    0.370056    1.823198
     25          1           0        1.064443    1.686530    1.035246
     26          1           0       -1.495029    0.156428    1.539330
     27          1           0        4.863284    0.459037   -0.576301
     28          1           0        4.231215   -0.376316    0.856170
     29          1           0        0.837582    0.286181   -1.013091
     30          1           0       -1.259937    0.588038   -1.469413
     31          1           0       -0.764824    1.764646   -0.241853
 ---------------------------------------------------------------------

 SCF Done:  E(RM062X) =  -617.500732621     A.U. after    1 cycles

 The electronic state is 1-A.
 Alpha  occ. eigenvalues --  -19.63445 -19.63131 -19.63086 -10.63599 -10.58393
 Alpha  occ. eigenvalues --  -10.57559 -10.57493 -10.57406 -10.52651 -10.52612
 Alpha  occ. eigenvalues --  -10.52535 -10.52404 -10.52242  -1.19846  -1.16382
 Alpha  occ. eigenvalues --   -1.13639  -0.89969  -0.89869  -0.86970  -0.83875
 Alpha  occ. eigenvalues --   -0.74584  -0.73876  -0.72527  -0.69133  -0.66161
 Alpha  occ. eigenvalues --   -0.64022  -0.60054  -0.57477  -0.56811  -0.55426
 Alpha  occ. eigenvalues --   -0.53505  -0.52995  -0.51663  -0.50326  -0.49946
 Alpha  occ. eigenvalues --   -0.49197  -0.46887  -0.45518  -0.45424  -0.44102
 Alpha  occ. eigenvalues --   -0.43045  -0.41215  -0.40277  -0.39600  -0.39146
 Alpha  occ. eigenvalues --   -0.38729  -0.37443  -0.37203  -0.34784  -0.32737
 Alpha  occ. eigenvalues --   -0.31677
 Alpha virt. eigenvalues --    0.00502   0.01277   0.01338   0.01628   0.02588
 Alpha virt. eigenvalues --    0.02909   0.03054   0.04149   0.04242   0.04791
 Alpha virt. eigenvalues --    0.04987   0.05227   0.06067   0.06276   0.07309

 Mulliken charges:
               1
     1  C   -0.545099
     2  C   -0.230047
     3  C   -0.387258
     4  O   -0.369166
     5  O   -0.395368
     6  C   -0.114764
     7  O   -0.447334
     8  C   -0.319135
     9  C   -0.183093
    10  C    0.012254
    11  C   -0.231532
    12  C   -0.151757
    13  C   -0.245487
    14  H    0.170314
    15  H    0.195814
    16  H    0.204406
    17  H    0.210444
    18  H    0.168626
    19  H    0.180642
    20  H    0.145964
    21  H    0.216215
    22  H    0.161413
    23  H    0.183686
    24  H    0.219991
    25  H    0.189685
    26  H    0.276225
    27  H    0.213722
    28  H    0.158039
    29  H    0.309940
    30  H    0.232398
    31  H    0.170260
 Sum of Mulliken charges =   0.00000

 Dipole moment (field-independent basis, Debye):
    X=             -1.6429    Y=              5.0340    Z=              1.3339  Tot=              5.4607
 Quadrupole moment (field-independent basis, Debye-Ang):
   XX=            -69.7847   YY=            -83.3426   ZZ=            -81.2057
   XY=              1.1551   XZ=              5.9403   YZ=             -0.0487

  Exact polarizability: 190.306   3.299 171.225  -0.896   0.215 166.162
 Approx polarizability: 149.853   2.111 141.850  -0.986   0.492 140.822

 ******    1 imaginary frequencies (negative Signs) ******

                      1                      2                      3
                      A                      A                      A
 Frequencies --    -49.1395                70.7562                83.9024
 Red. masses --      4.1912                 3.5002                 3.6386
 Frc consts  --      0.0060                 0.0103                 0.0151
 IR Inten    --      1.1110                 1.2347                 1.1370

                      4                      5                      6
                      A                      A                      A
 Frequencies --    164.0074               204.2587               249.3556
 Red. masses --      3.1226                 3.1563                 2.1555
 Frc consts  --      0.0495                 0.0776                 0.0790
 IR Inten    --      1.1264                 3.2537                 3.1207

                      7                      8                      9
                      A                      A                      A
 Frequencies --    268.3132               276.7090               301.0554
 Red. masses --      2.1611                 4.1209                 4.2290
 Frc consts  --      0.0917                 0.1859                 0.2258
 IR Inten    --     10.7037                 0.9135                12.5031

                     10                     11                     12
                      A                      A                      A
 Frequencies --    355.9177               372.4853               431.4941
 Red. masses --      1.8609                 2.4277                 3.0184
 Frc consts  --      0.1389                 0.1985                 0.3311
 IR Inten    --      3.0202                12.5050                 7.6034

                     13                     14                     15
                      A                      A                      A
 Frequencies --    456.2861               471.5490               484.8916
 Red. masses --      3.9739                 3.1290                 2.3918
 Frc consts  --      0.4875                 0.4099                 0.3313
 IR Inten    --      3.3335                 0.8364                 3.8907

                     16                     17                     18
                      A                      A                      A
 Frequencies --    513.5242               552.0114               599.8639
 Red. masses --      3.2942                 1.8657                 2.3061
 Frc consts  --      0.5118                 0.3350                 0.4889
 IR Inten    --      0.4382                15.1460                12.5970

                     19                     20                     21
                      A                      A                      A
 Frequencies --    656.2574               829.4567               838.7503
 Red. masses --      3.0333                 2.1439                 2.0566
 Frc consts  --      0.7697                 0.8690                 0.8525
 IR Inten    --     10.8925                 1.2691                 5.1305

                     22                     23                     24
                      A                      A                      A
 Frequencies --    859.7762               877.8419               883.9026
 Red. masses --      1.5416                 1.4801                 2.1119
 Frc consts  --      0.6714                 0.6720                 0.9721
 IR Inten    --     14.4128                16.1915                 3.3527

                     25                     26                     27
                      A                      A                      A
 Frequencies --    900.8279               939.8031               943.0327
 Red. masses --      2.3869                 2.5069                 2.1428
 Frc consts  --      1.1412                 1.3045                 1.1228
 IR Inten    --     19.6881                 7.5497                76.5970

                     28                     29                     30
                      A                      A                      A
 Frequencies --    964.5612               984.5102              1001.6722
 Red. masses --      1.9070                 2.1091                 1.4307
 Frc consts  --      1.0453                 1.2045                 0.8457
 IR Inten    --     13.3903                13.8726                 8.8049

                     31                     32                     33
                      A                      A                      A
 Frequencies --   1010.1169              1056.4941              1069.6426
 Red. masses --      2.1639                 1.6944                 1.5030
 Frc consts  --      1.3009                 1.1143                 1.0132
 IR Inten    --     34.0440                14.6936                47.6871

                     34                     35                     36
                      A                      A                      A
 Frequencies --   1076.5881              1108.2737              1135.9322
 Red. masses --      2.9555                 2.7115                 3.9832
 Frc consts  --      2.0183                 1.9622                 3.0283
 IR Inten    --     69.1117                68.0669               276.0680

                     37                     38                     39
                      A                      A                      A
 Frequencies --   1150.3388              1162.7640              1170.5397
 Red. masses --      2.3571                 2.4911                 2.3335
 Frc consts  --      1.8377                 1.9843                 1.8838
 IR Inten    --     34.1142               102.2263                26.3309

                     40                     41                     42
                      A                      A                      A
 Frequencies --   1187.0764              1202.8079              1211.9404
 Red. masses --      2.4515                 1.4357                 1.4954
 Frc consts  --      2.0353                 1.2237                 1.2941
 IR Inten    --      1.8812                11.7403                31.6490

                     43                     44                     45
                      A                      A                      A
 Frequencies --   1242.6602              1249.1016              1263.5646
 Red. masses --      1.7006                 1.5707                 3.6417
 Frc consts  --      1.5472                 1.4439                 3.4257
 IR Inten    --     16.5327               128.9357               358.2388

                     46                     47                     48
                      A                      A                      A
 Frequencies --   1286.9198              1304.6820              1321.8698
 Red. masses --      1.2226                 1.1826                 1.2892
 Frc consts  --      1.1930                 1.1861                 1.3273
 IR Inten    --     13.9458                27.9228                24.7928

                     49                     50                     51
                      A                      A                      A
 Frequencies --   1332.3540              1342.1588              1355.4983
 Red. masses --      1.3128                 1.2552                 1.2826
 Frc consts  --      1.3730                 1.3322                 1.3884
 IR Inten    --     10.3808                 7.4632                 1.6106

                     52                     53                     54
                      A                      A                      A
 Frequencies --   1363.9544              1368.6048              1380.4127
 Red. masses --      1.2319                 1.3881                 1.4133
 Frc consts  --      1.3502                 1.5318                 1.5867
 IR Inten    --     19.3217                 1.8532                10.5088

                     55                     56                     57
                      A                      A                      A
 Frequencies --   1389.2511              1392.7522              1397.6239
 Red. masses --      1.4947                 1.4433                 1.3314
 Frc consts  --      1.6997                 1.6495                 1.5323
 IR Inten    --     13.5977                48.5347                 3.4083

                     58                     59                     60
                      A                      A                      A
 Frequencies --   1414.7414              1423.0565              1436.3423
 Red. masses --      1.3862                 1.3328                 1.5280
 Frc consts  --      1.6347                 1.5903                 1.8573
 IR Inten    --     11.0149                 7.6562                67.9724

                     61                     62                     63
                      A                      A                      A
 Frequencies --   1438.6696              1470.8996              1471.9558
 Red. masses --      1.4870                 1.1137                 1.0937
 Frc consts  --      1.8134                 1.4196                 1.3962
 IR Inten    --      4.2732                 5.8292                 9.2349

                     64                     65                     66
                      A                      A                      A
 Frequencies --   1474.0488              1489.4174              1492.8766
 Red. masses --      1.1039                 1.1237                 1.1250
 Frc consts  --      1.4132                 1.4687                 1.4772
 IR Inten    --      7.5489                18.3229                16.4217

                     67                     68                     69
                      A                      A                      A
 Frequencies --   1499.8414              1505.0437              1508.3902
 Red. masses --      1.0865                 1.0980                 1.1035
 Frc consts  --      1.4400                 1.4653                 1.4792
 IR Inten    --      0.6686                 7.4550                 9.3458

                     70                     71                     72
                      A                      A                      A
 Frequencies --   3015.2444              3035.2681              3037.0251
 Red. masses --      1.0833                 1.0680                 1.0694
 Frc consts  --      5.8029                 5.7973                 5.8114
 IR Inten    --     85.4000                37.4845                95.9700

                     73                     74                     75
                      A                      A                      A
 Frequencies --   3041.4733              3060.4266              3061.3662
 Red. masses --      1.0699                 1.0653                 1.0684
 Frc consts  --      5.8310                 5.8785                 5.8994
 IR Inten    --     73.0479                28.0843                27.0670

                     76                     77                     78
                      A                      A                      A
 Frequencies --   3071.0298              3071.5522              3077.5524
 Red. masses --      1.0619                 1.0625                 1.0636
 Frc consts  --      5.9004                 5.9059                 5.9355
 IR Inten    --     42.9787                41.8202                29.8733

                     79                     80                     81
                      A                      A                      A
 Frequencies --   3103.8034              3118.8385              3120.5132
 Red. masses --      1.0829                 1.0979                 1.0970
 Frc consts  --      6.1467                 6.2921                 6.2939
 IR Inten    --     38.6095                24.9233                44.0234

                     82                     83                     84
                      A                      A                      A
 Frequencies --   3123.4427              3123.8412              3138.1806
 Red. masses --      1.1025                 1.1022                 1.0964
 Frc consts  --      6.3369                 6.3370                 6.3617
 IR Inten    --     41.7999                89.2753                42.6647

                     85                     86                     87
                      A                      A                      A
 Frequencies --   3140.3189              3141.8103              3144.1614
 Red. masses --      1.0980                 1.1007                 1.0964
 Frc consts  --      6.3798                 6.4014                 6.3862
 IR Inten    --     47.4649                40.5306                31.7606

 - Thermochemistry -
 -------------------
 Temperature   298.150 Kelvin.  Pressure   1.00000 Atm.
 Atom     1 has atomic number  6 and mass  12.00000

 Molecular mass:   186.12559 amu.
 Principal axes and moments of inertia in atomic units:
                           1         2         3
     Eigenvalues --   855.528824870.430145269.37032
           X            0.99997  -0.00020   0.00722
           Y            0.00021   1.00000  -0.00170
           Z           -0.00722   0.00170   0.99997
 This molecule is an asymmetric top.
 Rotational symmetry number  1.
 Warning -- assumption of classical behavior for rotation
           may cause significant error
 Rotational temperatures (Kelvin)      0.10124     0.01778     0.01644
 Rotational constants (GHZ):           2.10950     0.37055     0.34250
    1 imaginary frequencies ignored.
 Zero-point vibrational energy     737628.3 (Joules/Mol)
                                  176.29740 (Kcal/Mol)
 Warning -- explicit consideration of  17 degrees of freedom as
           vibrations may cause significant error
 Vibrational temperatures:    101.80   120.72   235.97   293.88   358.77
          (Kelvin)            386.04   398.12   433.15   512.09   535.92
                              620.82   656.49   678.45   697.65   738.85
                              794.22   863.07   944.21  1193.40  1206.77
                             1237.03  1263.02  1271.74  1296.09  1352.17
                             1356.81  1387.79  1416.49  1441.18  1453.33
                             1520.06  1538.98  1548.97  1594.56  1634.35
                             1655.08  1672.96  1684.15  1707.94  1730.57
                             1743.71  1787.91  1797.18  1817.99  1851.59
                             1877.15  1901.88  1916.96  1931.07  1950.26
                             1962.43  1969.12  1986.11  1998.82  2003.86
                             2010.87  2035.50  2047.46  2066.58  2069.92
                             2116.30  2117.82  2120.83  2142.94  2147.92
                             2157.94  2165.42  2170.24  4338.26  4367.07
                             4369.60  4376.00  4403.27  4404.62  4418.53
                             4419.28  4427.91  4465.68  4487.31  4489.72
                             4493.94  4494.51  4515.14  4518.22  4520.36
                             4523.75

 Zero-point correction=                           0.280948 (Hartree/Particle)
 Thermal correction to Energy=                    0.291810
 Thermal correction to Enthalpy=                  0.292754
 Thermal correction to Gibbs Free Energy=         0.244369
 Sum of electronic and zero-point Energies=           -617.219785
 Sum of electronic and thermal Energies=              -617.208923
 Sum of electronic and thermal Enthalpies=            -617.207979
 Sum of electronic and thermal Free Energies=         -617.256363

                     E (Thermal)             CV                S
                      KCal/Mol        Cal/Mol-Kelvin    Cal/Mol-Kelvin
 Total                  183.113             44.769            101.834
 Electronic               0.000              0.000              0.000
 Translational            0.889              2.981             41.570
 Rotational               0.889              2.981             31.463
 Vibrational            181.336             38.808             28.801
 Vibration     1          0.598              1.968              4.132
 Vibration     2          0.601              1.960              3.797
 Vibration     3          0.623              1.887              2.503
 Vibration     4          0.640              1.834              2.094
 Vibration     5          0.662              1.764              1.735
 Vibration     6          0.673              1.731              1.607
 Vibration     7          0.678              1.717              1.554
 Vibration     8          0.693              1.672              1.411
 Vibration     9          0.731              1.563              1.140
 Vibration    10          0.744              1.529              1.070
 Vibration    11          0.793              1.402              0.854
 Vibration    12          0.815              1.347              0.777
 Vibration    13          0.828              1.313              0.733
 Vibration    14          0.841              1.284              0.697
 Vibration    15          0.869              1.220              0.625
 Vibration    16          0.907              1.135              0.540
 Vibration    17          0.958              1.032              0.450

 Optimization completed.
    -- Stationary point found.
 Normal termination of Gaussian 16 at Sun Mar 10 09:52:19 2019.
