 Gaussian 16, Revision B.01,
 Gaussian 16:  ES64L-G16RevB.01 20-Dec-2017

 ----------------------------------------------------------------------
 #M062X/6-311++G(2d,2p) opt=ModRedundant freq=noraman SCRF=(SMD,solvent
 =water)
 ----------------------------------------------------------------------

 --------------------------------
 4c1_b1_4e_4c1_PHI.inp_extract_25
 --------------------------------
 Symbolic Z-matrix:
 Charge =  0 Multiplicity = 1

 SCF Done:  E(RM062X) =  -617.506618376     A.U. after   12 cycles
 SCF Done:  E(RM062X) =  -617.508187756     A.U. after   10 cycles
 SCF Done:  E(RM062X) =  -617.508306430     A.U. after    9 cycles
 SCF Done:  E(RM062X) =  -617.508320789     A.U. after    9 cycles
 SCF Done:  E(RM062X) =  -617.508322442     A.U. after    8 cycles
 SCF Done:  E(RM062X) =  -617.508322728     A.U. after    7 cycles
 Optimization completed.
    -- Stationary point found.
 Normal termination of Gaussian 16 at Sun Mar 10 09:49:44 2019.

 ----------------------------------------------------------------------
 #N Geom=AllCheck Guess=TCheck SCRF=Check GenChk RM062X/6-311++G(2d,2p)
  Freq
 ----------------------------------------------------------------------

 Structure from the checkpoint file:  "4c1_b1_4e_4c1_PHI.inp_extract_25.chk"
 --------------------------------
 4c1_b1_4e_4c1_PHI.inp_extract_25
 --------------------------------
 Charge =  0 Multiplicity = 1

                         Standard orientation:
 ---------------------------------------------------------------------
 Center     Atomic      Atomic             Coordinates (Angstroms)
 Number     Number       Type             X           Y           Z
 ---------------------------------------------------------------------
      1          6           0       -3.497553   -1.083813    0.098335
      2          6           0        1.761220   -1.159010   -0.293805
      3          6           0        3.487330    1.076005    0.126925
      4          8           0        2.964456   -0.998709   -1.029547
      5          8           0       -1.698800    1.135121   -0.140323
      6          6           0       -2.882146    1.094482   -0.942519
      7          8           0       -0.015085   -0.006790    0.850862
      8          6           0       -3.985046    0.322859   -0.240435
      9          6           0        2.163941    0.996017    0.887524
     10          6           0       -1.181658   -0.167713    0.095311
     11          6           0        3.955759   -0.314785   -0.262070
     12          6           0        1.166655    0.195311    0.073525
     13          6           0       -2.176091   -1.010691    0.863386
     14          1           0       -4.241564   -1.623699    0.682458
     15          1           0       -3.344420   -1.643331   -0.828356
     16          1           0        1.956189   -1.721186    0.627192
     17          1           0        1.077465   -1.731889   -0.918482
     18          1           0        3.360069    1.673418   -0.778381
     19          1           0        4.252636    1.556426    0.736346
     20          1           0       -2.645126    0.627665   -1.905110
     21          1           0       -3.161445    2.130408   -1.120339
     22          1           0       -4.260509    0.852766    0.674201
     23          1           0       -4.864401    0.288537   -0.884189
     24          1           0        2.316265    0.486756    1.843254
     25          1           0        1.765019    1.988965    1.094078
     26          1           0       -0.952795   -0.626748   -0.874767
     27          1           0        4.847257   -0.275323   -0.884209
     28          1           0        4.178451   -0.904802    0.633978
     29          1           0        0.914221    0.741608   -0.839913
     30          1           0       -2.325334   -0.545917    1.840937
     31          1           0       -1.751011   -2.002602    1.016302
 ---------------------------------------------------------------------

 SCF Done:  E(RM062X) =  -617.508322728     A.U. after    1 cycles

 The electronic state is 1-A.
 Alpha  occ. eigenvalues --  -19.63866 -19.63170 -19.62989 -10.63339 -10.58404
 Alpha  occ. eigenvalues --  -10.57499 -10.57496 -10.57432 -10.52619 -10.52575
 Alpha  occ. eigenvalues --  -10.52550 -10.52465 -10.52242  -1.20159  -1.16370
 Alpha  occ. eigenvalues --   -1.13758  -0.90616  -0.89542  -0.86679  -0.83696
 Alpha  occ. eigenvalues --   -0.74422  -0.73431  -0.72566  -0.69792  -0.66043
 Alpha  occ. eigenvalues --   -0.64331  -0.59760  -0.57845  -0.57136  -0.55183
 Alpha  occ. eigenvalues --   -0.54553  -0.52565  -0.51692  -0.50526  -0.50017
 Alpha  occ. eigenvalues --   -0.48076  -0.45845  -0.45601  -0.45489  -0.44201
 Alpha  occ. eigenvalues --   -0.43759  -0.40450  -0.40300  -0.40010  -0.39187
 Alpha  occ. eigenvalues --   -0.38154  -0.38010  -0.37230  -0.35970  -0.32663
 Alpha  occ. eigenvalues --   -0.31909
 Alpha virt. eigenvalues --    0.00511   0.01276   0.01366   0.01503   0.02580
 Alpha virt. eigenvalues --    0.02832   0.03033   0.04119   0.04242   0.04730
 Alpha virt. eigenvalues --    0.04828   0.05089   0.05973   0.06144   0.06985

 Mulliken charges:
               1
     1  C   -0.396347
     2  C   -0.336493
     3  C   -0.369453
     4  O   -0.380401
     5  O   -0.417434
     6  C   -0.129949
     7  O   -0.338640
     8  C   -0.334608
     9  C   -0.251492
    10  C   -0.048651
    11  C   -0.151229
    12  C   -0.107637
    13  C   -0.233018
    14  H    0.197907
    15  H    0.176539
    16  H    0.215283
    17  H    0.204730
    18  H    0.165969
    19  H    0.192941
    20  H    0.147297
    21  H    0.206908
    22  H    0.161758
    23  H    0.182192
    24  H    0.206266
    25  H    0.176102
    26  H    0.262403
    27  H    0.216744
    28  H    0.150360
    29  H    0.268639
    30  H    0.198236
    31  H    0.165076
 Sum of Mulliken charges =  -0.00000

 Dipole moment (field-independent basis, Debye):
    X=             -1.2435    Y=             -0.8565    Z=             -0.6969  Tot=              1.6629
 Quadrupole moment (field-independent basis, Debye-Ang):
   XX=            -65.4487   YY=            -81.3850   ZZ=            -82.9988
   XY=              6.6440   XZ=              8.8848   YZ=             -3.2784

  Exact polarizability: 188.941   0.994 170.430   1.931  -1.329 169.166
 Approx polarizability: 148.652   0.354 140.807   1.421  -0.223 143.031

                      1                      2                      3
                      A                      A                      A
 Frequencies --     33.6060                51.3087                71.2481
 Red. masses --      4.0820                 3.4342                 3.7007
 Frc consts  --      0.0027                 0.0053                 0.0111
 IR Inten    --      2.0959                 3.9789                 2.8201

                      4                      5                      6
                      A                      A                      A
 Frequencies --    149.0898               193.8763               244.6683
 Red. masses --      3.0083                 3.2519                 2.3880
 Frc consts  --      0.0394                 0.0720                 0.0842
 IR Inten    --      2.2125                 0.7103                 7.2340

                      7                      8                      9
                      A                      A                      A
 Frequencies --    249.5686               282.7726               336.4782
 Red. masses --      2.0269                 3.2587                 2.2341
 Frc consts  --      0.0744                 0.1535                 0.1490
 IR Inten    --      6.8595                 1.3403                12.4789

                     10                     11                     12
                      A                      A                      A
 Frequencies --    356.8927               395.2324               436.0061
 Red. masses --      2.5443                 3.5983                 2.7010
 Frc consts  --      0.1909                 0.3312                 0.3025
 IR Inten    --     12.5444                11.4840                 4.1299

                     13                     14                     15
                      A                      A                      A
 Frequencies --    446.6486               463.8105               486.0473
 Red. masses --      2.9807                 3.2895                 3.9771
 Frc consts  --      0.3503                 0.4169                 0.5536
 IR Inten    --      3.0105                 1.4312                 4.2930

                     16                     17                     18
                      A                      A                      A
 Frequencies --    513.2970               544.9278               589.3022
 Red. masses --      2.5639                 2.1696                 1.9213
 Frc consts  --      0.3980                 0.3796                 0.3931
 IR Inten    --      1.6505                10.3952                 7.3519

                     19                     20                     21
                      A                      A                      A
 Frequencies --    655.3495               831.8698               834.7788
 Red. masses --      3.0610                 2.2220                 1.7860
 Frc consts  --      0.7746                 0.9059                 0.7333
 IR Inten    --      2.0274                 8.2519                 4.9383

                     22                     23                     24
                      A                      A                      A
 Frequencies --    863.5910               880.0974               884.0767
 Red. masses --      1.9262                 1.4322                 1.7811
 Frc consts  --      0.8464                 0.6536                 0.8202
 IR Inten    --      9.9867                10.5265                12.9704

                     25                     26                     27
                      A                      A                      A
 Frequencies --    900.2368               933.0020               943.6845
 Red. masses --      2.3354                 2.4637                 2.1997
 Frc consts  --      1.1151                 1.2636                 1.1542
 IR Inten    --     11.3510                64.7953                42.2787

                     28                     29                     30
                      A                      A                      A
 Frequencies --    960.4280               989.0165               996.6810
 Red. masses --      2.1087                 2.0703                 1.3968
 Frc consts  --      1.1460                 1.1932                 0.8175
 IR Inten    --      9.3019                53.5672                 1.7499

                     31                     32                     33
                      A                      A                      A
 Frequencies --   1008.3349              1054.1381              1057.2816
 Red. masses --      2.1142                 1.6915                 1.5603
 Frc consts  --      1.2665                 1.1074                 1.0277
 IR Inten    --     14.4583                24.7756               107.4884

                     34                     35                     36
                      A                      A                      A
 Frequencies --   1090.8785              1104.3754              1119.0094
 Red. masses --      2.5487                 3.2205                 4.4233
 Frc consts  --      1.7870                 2.3143                 3.2634
 IR Inten    --     69.0025                83.1510               287.4766

                     37                     38                     39
                      A                      A                      A
 Frequencies --   1150.8361              1156.1496              1173.0635
 Red. masses --      2.3184                 3.0332                 2.4343
 Frc consts  --      1.8091                 2.3888                 1.9736
 IR Inten    --     24.2114               128.3559                43.8877

                     40                     41                     42
                      A                      A                      A
 Frequencies --   1184.6679              1203.5732              1209.0058
 Red. masses --      2.0874                 1.5115                 1.8610
 Frc consts  --      1.7260                 1.2901                 1.6027
 IR Inten    --      6.5862                13.3893               245.9327

                     43                     44                     45
                      A                      A                      A
 Frequencies --   1227.3430              1238.8834              1251.3420
 Red. masses --      2.3399                 1.6628                 1.5819
 Frc consts  --      2.0767                 1.5036                 1.4594
 IR Inten    --     13.8690                38.5297                84.2369

                     46                     47                     48
                      A                      A                      A
 Frequencies --   1279.6854              1304.7708              1315.2103
 Red. masses --      1.2331                 1.1866                 1.1949
 Frc consts  --      1.1898                 1.1902                 1.2178
 IR Inten    --      6.4955                20.7247                32.1858

                     49                     50                     51
                      A                      A                      A
 Frequencies --   1329.7192              1342.8812              1348.6300
 Red. masses --      1.3008                 1.2758                 1.3038
 Frc consts  --      1.3552                 1.3556                 1.3972
 IR Inten    --      9.5708                 1.3993                 8.6542

                     52                     53                     54
                      A                      A                      A
 Frequencies --   1357.5235              1368.0854              1380.6955
 Red. masses --      1.2231                 1.4403                 1.4452
 Frc consts  --      1.3280                 1.5882                 1.6232
 IR Inten    --     21.4680                 1.8768                 6.1876

                     55                     56                     57
                      A                      A                      A
 Frequencies --   1384.9189              1394.7403              1400.1566
 Red. masses --      1.4966                 1.2769                 1.4743
 Frc consts  --      1.6913                 1.4635                 1.7030
 IR Inten    --      3.4248                13.0365                17.3730

                     58                     59                     60
                      A                      A                      A
 Frequencies --   1414.5175              1419.7854              1433.9299
 Red. masses --      1.4823                 1.3477                 1.4284
 Frc consts  --      1.7474                 1.6006                 1.7305
 IR Inten    --     28.9681                13.1969                30.2852

                     61                     62                     63
                      A                      A                      A
 Frequencies --   1448.4375              1470.1631              1471.7480
 Red. masses --      1.4588                 1.0946                 1.1191
 Frc consts  --      1.8032                 1.3940                 1.4283
 IR Inten    --     30.5111                 9.5413                 3.1737

                     64                     65                     66
                      A                      A                      A
 Frequencies --   1474.0735              1488.8125              1491.4761
 Red. masses --      1.1159                 1.1234                 1.1257
 Frc consts  --      1.4286                 1.4671                 1.4754
 IR Inten    --     13.6297                15.9371                22.0618

                     67                     68                     69
                      A                      A                      A
 Frequencies --   1498.0230              1503.7904              1505.9336
 Red. masses --      1.0901                 1.0964                 1.1028
 Frc consts  --      1.4413                 1.4608                 1.4736
 IR Inten    --      0.6566                 4.3227                10.3385

                     70                     71                     72
                      A                      A                      A
 Frequencies --   3028.8447              3032.1847              3037.8335
 Red. masses --      1.0776                 1.0741                 1.0697
 Frc consts  --      5.8248                 5.8187                 5.8165
 IR Inten    --     54.4823                46.1666                77.8348

                     73                     74                     75
                      A                      A                      A
 Frequencies --   3039.3502              3058.7891              3060.4916
 Red. masses --      1.0700                 1.0703                 1.0685
 Frc consts  --      5.8235                 5.8999                 5.8966
 IR Inten    --     68.8340                 7.2366                21.2225

                     76                     77                     78
                      A                      A                      A
 Frequencies --   3068.1058              3068.9839              3071.5925
 Red. masses --      1.0774                 1.0620                 1.0613
 Frc consts  --      5.9757                 5.8932                 5.8996
 IR Inten    --     64.4791                36.9418                49.8427

                     79                     80                     81
                      A                      A                      A
 Frequencies --   3073.5747              3118.5098              3119.3935
 Red. masses --      1.0626                 1.0968                 1.0995
 Frc consts  --      5.9146                 6.2845                 6.3038
 IR Inten    --     49.8591                40.7755                40.5343

                     82                     83                     84
                      A                      A                      A
 Frequencies --   3121.5513              3125.3885              3127.3994
 Red. masses --      1.1016                 1.1027                 1.1041
 Frc consts  --      6.3246                 6.3463                 6.3624
 IR Inten    --     55.7134                55.3735                53.9903

                     85                     86                     87
                      A                      A                      A
 Frequencies --   3132.4275              3141.1181              3142.8201
 Red. masses --      1.0971                 1.0966                 1.0962
 Frc consts  --      6.3424                 6.3746                 6.3795
 IR Inten    --     35.8144                42.2284                40.3127

 - Thermochemistry -
 -------------------
 Temperature   298.150 Kelvin.  Pressure   1.00000 Atm.
 Atom     1 has atomic number  6 and mass  12.00000

 Molecular mass:   186.12559 amu.
 Principal axes and moments of inertia in atomic units:
                           1         2         3
     Eigenvalues --   848.345215023.144825284.00900
           X            0.99992   0.01008   0.00697
           Y           -0.00979   0.99915  -0.03993
           Z           -0.00737   0.03986   0.99918
 This molecule is an asymmetric top.
 Rotational symmetry number  1.
 Warning -- assumption of classical behavior for rotation
           may cause significant error
 Rotational temperatures (Kelvin)      0.10210     0.01724     0.01639
 Rotational constants (GHZ):           2.12737     0.35929     0.34155
 Zero-point vibrational energy     736556.0 (Joules/Mol)
                                  176.04110 (Kcal/Mol)
 Warning -- explicit consideration of  18 degrees of freedom as
           vibrations may cause significant error
 Vibrational temperatures:     48.35    73.82   102.51   214.51   278.94
          (Kelvin)            352.02   359.07   406.85   484.12   513.49
                              568.65   627.32   642.63   667.32   699.31
                              738.52   784.03   847.87   942.90  1196.88
                             1201.06  1242.51  1266.26  1271.99  1295.24
                             1342.38  1357.75  1381.84  1422.97  1434.00
                             1450.77  1516.67  1521.19  1569.53  1588.95
                             1610.00  1655.80  1663.44  1687.78  1704.47
                             1731.67  1739.49  1765.87  1782.48  1800.40
                             1841.18  1877.27  1892.29  1913.17  1932.11
                             1940.38  1953.17  1968.37  1986.51  1992.59
                             2006.72  2014.51  2035.18  2042.75  2063.11
                             2083.98  2115.24  2117.52  2120.86  2142.07
                             2145.90  2155.32  2163.62  2166.70  4357.83
                             4362.64  4370.76  4372.95  4400.92  4403.36
                             4414.32  4415.58  4419.34  4422.19  4486.84
                             4488.11  4491.22  4496.74  4499.63  4506.86
                             4519.37  4521.82

 Zero-point correction=                           0.280539 (Hartree/Particle)
 Thermal correction to Energy=                    0.292364
 Thermal correction to Enthalpy=                  0.293308
 Thermal correction to Gibbs Free Energy=         0.241695
 Sum of electronic and zero-point Energies=           -617.227783
 Sum of electronic and thermal Energies=              -617.215959
 Sum of electronic and thermal Enthalpies=            -617.215015
 Sum of electronic and thermal Free Energies=         -617.266628

                     E (Thermal)             CV                S
                      KCal/Mol        Cal/Mol-Kelvin    Cal/Mol-Kelvin
 Total                  183.461             46.845            108.630
 Electronic               0.000              0.000              0.000
 Translational            0.889              2.981             41.570
 Rotational               0.889              2.981             31.488
 Vibrational            181.684             40.883             35.572
 Vibration     1          0.594              1.983              5.604
 Vibration     2          0.596              1.977              4.766
 Vibration     3          0.598              1.968              4.119
 Vibration     4          0.618              1.904              2.684
 Vibration     5          0.635              1.848              2.190
 Vibration     6          0.660              1.772              1.769
 Vibration     7          0.662              1.763              1.734
 Vibration     8          0.682              1.706              1.517
 Vibration     9          0.717              1.603              1.229
 Vibration    10          0.732              1.561              1.136
 Vibration    11          0.762              1.480              0.980
 Vibration    12          0.796              1.392              0.839
 Vibration    13          0.806              1.368              0.806
 Vibration    14          0.821              1.330              0.755
 Vibration    15          0.842              1.281              0.694
 Vibration    16          0.868              1.221              0.626
 Vibration    17          0.900              1.151              0.555
 Vibration    18          0.947              1.055              0.468

 Optimization completed.
    -- Stationary point found.
 Normal termination of Gaussian 16 at Sun Mar 10 10:45:33 2019.
