 Gaussian 16, Revision B.01,
 Gaussian 16:  ES64L-G16RevB.01 20-Dec-2017

 ----------------------------------------------------------------------
 #M062X/6-311++G(2d,2p) opt=ModRedundant freq=noraman SCRF=(SMD,solvent
 =water)
 ----------------------------------------------------------------------

 --------------------------------
 4c1_b1_4e_4c1_PHI.inp_extract_18
 --------------------------------
 Symbolic Z-matrix:
 Charge =  0 Multiplicity = 1

 SCF Done:  E(RM062X) =  -617.502351125     A.U. after   12 cycles
 SCF Done:  E(RM062X) =  -617.504012140     A.U. after   10 cycles
 SCF Done:  E(RM062X) =  -617.504262222     A.U. after   10 cycles
 SCF Done:  E(RM062X) =  -617.504361007     A.U. after   10 cycles
 SCF Done:  E(RM062X) =  -617.504386928     A.U. after    9 cycles
 SCF Done:  E(RM062X) =  -617.504389563     A.U. after    8 cycles
 SCF Done:  E(RM062X) =  -617.504389997     A.U. after    8 cycles
 Optimization completed.
    -- Stationary point found.
 Normal termination of Gaussian 16 at Sun Mar 10 08:43:13 2019.

 ----------------------------------------------------------------------
 #N Geom=AllCheck Guess=TCheck SCRF=Check GenChk RM062X/6-311++G(2d,2p)
  Freq
 ----------------------------------------------------------------------

 Structure from the checkpoint file:  "4c1_b1_4e_4c1_PHI.inp_extract_18.chk"
 --------------------------------
 4c1_b1_4e_4c1_PHI.inp_extract_18
 --------------------------------
 Charge =  0 Multiplicity = 1

                         Standard orientation:
 ---------------------------------------------------------------------
 Center     Atomic      Atomic             Coordinates (Angstroms)
 Number     Number       Type             X           Y           Z
 ---------------------------------------------------------------------
      1          6           0       -2.975874    1.330517   -0.569790
      2          6           0        2.270238   -1.209112   -0.506877
      3          6           0        2.929629    1.353706    0.550776
      4          8           0        3.516145   -0.589916   -0.777076
      5          8           0       -2.131308   -1.206110    0.459342
      6          6           0       -3.388732   -0.659307    0.865323
      7          8           0       -0.010008   -0.933503   -0.078053
      8          6           0       -3.971647    0.229174   -0.218011
      9          6           0        1.536001    0.779370    0.810294
     10          6           0       -1.174295   -0.196112    0.216648
     11          6           0        3.929801    0.239317    0.308989
     12          6           0        1.170524   -0.172307   -0.320755
     13          6           0       -1.614921    0.720707   -0.909067
     14          1           0       -3.336002    1.931060   -1.403961
     15          1           0       -2.864092    2.000671    0.286883
     16          1           0        2.344211   -1.819769    0.400512
     17          1           0        2.041034   -1.856039   -1.351578
     18          1           0        2.905006    2.003041   -0.327104
     19          1           0        3.256263    1.956465    1.398068
     20          1           0       -3.246164   -0.088592    1.789484
     21          1           0       -4.028362   -1.512103    1.079721
     22          1           0       -4.183777   -0.379066   -1.100161
     23          1           0       -4.914603    0.649095    0.133100
     24          1           0        1.529951    0.219510    1.750018
     25          1           0        0.808595    1.586696    0.893819
     26          1           0       -1.035494    0.376361    1.142829
     27          1           0        4.907214    0.631981    0.037207
     28          1           0        4.036546   -0.379261    1.207084
     29          1           0        1.063895    0.389330   -1.253931
     30          1           0       -1.675216    0.126485   -1.824245
     31          1           0       -0.871979    1.504650   -1.056626
 ---------------------------------------------------------------------

 SCF Done:  E(RM062X) =  -617.504389997     A.U. after    1 cycles

 The electronic state is 1-A.
 Alpha  occ. eigenvalues --  -19.63589 -19.63312 -19.63182 -10.63431 -10.58540
 Alpha  occ. eigenvalues --  -10.57641 -10.57608 -10.57425 -10.52670 -10.52613
 Alpha  occ. eigenvalues --  -10.52596 -10.52425 -10.52264  -1.20176  -1.16487
 Alpha  occ. eigenvalues --   -1.13848  -0.89948  -0.89838  -0.87090  -0.83765
 Alpha  occ. eigenvalues --   -0.74842  -0.73794  -0.72419  -0.69384  -0.65855
 Alpha  occ. eigenvalues --   -0.64291  -0.59845  -0.57957  -0.56638  -0.55600
 Alpha  occ. eigenvalues --   -0.53715  -0.52858  -0.51493  -0.50199  -0.49853
 Alpha  occ. eigenvalues --   -0.49344  -0.46907  -0.45684  -0.45403  -0.44928
 Alpha  occ. eigenvalues --   -0.43251  -0.40799  -0.40372  -0.39782  -0.39239
 Alpha  occ. eigenvalues --   -0.39100  -0.37424  -0.37044  -0.34851  -0.32686
 Alpha  occ. eigenvalues --   -0.31813
 Alpha virt. eigenvalues --    0.00509   0.01270   0.01371   0.01626   0.02607
 Alpha virt. eigenvalues --    0.02912   0.03084   0.04118   0.04262   0.04796
 Alpha virt. eigenvalues --    0.05072   0.05347   0.05912   0.06341   0.07270

 Mulliken charges:
               1
     1  C   -0.434093
     2  C   -0.254699
     3  C   -0.400826
     4  O   -0.391198
     5  O   -0.421762
     6  C   -0.095072
     7  O   -0.418333
     8  C   -0.338886
     9  C   -0.213237
    10  C    0.010688
    11  C   -0.239472
    12  C   -0.220461
    13  C   -0.207982
    14  H    0.172437
    15  H    0.187972
    16  H    0.199340
    17  H    0.212905
    18  H    0.177016
    19  H    0.178983
    20  H    0.142505
    21  H    0.217671
    22  H    0.165653
    23  H    0.186323
    24  H    0.240849
    25  H    0.182145
    26  H    0.305448
    27  H    0.217668
    28  H    0.158050
    29  H    0.268885
    30  H    0.229738
    31  H    0.181745
 Sum of Mulliken charges =  -0.00000

 Dipole moment (field-independent basis, Debye):
    X=             -1.6818    Y=              5.1226    Z=              1.9437  Tot=              5.7313
 Quadrupole moment (field-independent basis, Debye-Ang):
   XX=            -73.8048   YY=            -83.7027   ZZ=            -79.2049
   XY=             -0.0848   XZ=              6.2232   YZ=              0.1863

  Exact polarizability: 188.265   3.153 171.226  -1.705   0.778 167.507
 Approx polarizability: 148.630   2.506 142.800  -1.553   1.000 140.812

                      1                      2                      3
                      A                      A                      A
 Frequencies --     39.6316                52.6443                95.8388
 Red. masses --      3.2275                 3.9278                 3.5935
 Frc consts  --      0.0030                 0.0064                 0.0194
 IR Inten    --      0.7948                 1.0558                 0.9170

                      4                      5                      6
                      A                      A                      A
 Frequencies --    159.2636               187.3891               244.6703
 Red. masses --      3.1591                 3.0505                 2.1140
 Frc consts  --      0.0472                 0.0631                 0.0746
 IR Inten    --      1.7151                 2.7129                 1.9783

                      7                      8                      9
                      A                      A                      A
 Frequencies --    252.8512               270.9400               329.4627
 Red. masses --      2.0949                 4.8951                 4.5174
 Frc consts  --      0.0789                 0.2117                 0.2889
 IR Inten    --     10.0155                 0.2060                10.2443

                     10                     11                     12
                      A                      A                      A
 Frequencies --    349.1883               380.3334               437.7975
 Red. masses --      1.9060                 2.3687                 3.1413
 Frc consts  --      0.1369                 0.2019                 0.3547
 IR Inten    --      3.2209                17.1604                 7.0652

                     13                     14                     15
                      A                      A                      A
 Frequencies --    454.3329               469.8148               477.9986
 Red. masses --      3.2118                 3.0915                 2.3926
 Frc consts  --      0.3906                 0.4020                 0.3221
 IR Inten    --      0.8645                 3.3666                 4.0863

                     16                     17                     18
                      A                      A                      A
 Frequencies --    522.3532               541.1021               589.8370
 Red. masses --      3.3650                 2.1470                 2.0532
 Frc consts  --      0.5410                 0.3704                 0.4209
 IR Inten    --      8.2429                20.1217                 2.6069

                     19                     20                     21
                      A                      A                      A
 Frequencies --    662.9682               826.5475               843.7910
 Red. masses --      3.1167                 2.1918                 1.8126
 Frc consts  --      0.8071                 0.8822                 0.7604
 IR Inten    --      8.7936                 1.0199                 2.1063

                     22                     23                     24
                      A                      A                      A
 Frequencies --    854.6921               879.7765               882.4244
 Red. masses --      1.6937                 1.4183                 2.2040
 Frc consts  --      0.7290                 0.6468                 1.0111
 IR Inten    --     20.7294                20.5387                 0.9072

                     25                     26                     27
                      A                      A                      A
 Frequencies --    901.8182               944.6277               947.2230
 Red. masses --      2.3682                 2.2106                 2.2704
 Frc consts  --      1.1348                 1.1622                 1.2002
 IR Inten    --     13.0547                38.2310                42.0381

                     28                     29                     30
                      A                      A                      A
 Frequencies --    960.0576               991.7855              1006.8534
 Red. masses --      1.9097                 2.1075                 1.5635
 Frc consts  --      1.0371                 1.2214                 0.9339
 IR Inten    --      2.0044                21.5570                 9.3307

                     31                     32                     33
                      A                      A                      A
 Frequencies --   1009.1909              1065.9340              1071.1446
 Red. masses --      1.9672                 1.7193                 1.5990
 Frc consts  --      1.1805                 1.1509                 1.0809
 IR Inten    --     31.1645                24.6090                31.8384

                     34                     35                     36
                      A                      A                      A
 Frequencies --   1086.5010              1122.2778              1158.7440
 Red. masses --      2.8810                 3.2654                 2.4150
 Frc consts  --      2.0038                 2.4232                 1.9105
 IR Inten    --     95.5665                65.7538                19.4077

                     37                     38                     39
                      A                      A                      A
 Frequencies --   1166.5546              1177.3252              1179.1953
 Red. masses --      2.4555                 1.8552                 2.0277
 Frc consts  --      1.9688                 1.5150                 1.6612
 IR Inten    --     38.5220                99.4714                40.2120

                     40                     41                     42
                      A                      A                      A
 Frequencies --   1184.5525              1205.8476              1214.3607
 Red. masses --      2.3804                 1.4401                 1.6456
 Frc consts  --      1.9680                 1.2338                 1.4298
 IR Inten    --     17.7724                17.6907                35.9227

                     43                     44                     45
                      A                      A                      A
 Frequencies --   1253.4794              1263.3869              1265.2119
 Red. masses --      1.7532                 2.5358                 1.7858
 Frc consts  --      1.6230                 2.3847                 1.6843
 IR Inten    --     60.4508               238.2178               257.3751

                     46                     47                     48
                      A                      A                      A
 Frequencies --   1289.0093              1303.2596              1330.9973
 Red. masses --      1.2432                 1.1815                 1.4206
 Frc consts  --      1.2170                 1.1824                 1.4828
 IR Inten    --     25.6965                 9.2001                34.8409

                     49                     50                     51
                      A                      A                      A
 Frequencies --   1337.2149              1345.0491              1351.6656
 Red. masses --      1.3531                 1.2460                 1.2961
 Frc consts  --      1.4256                 1.3281                 1.3952
 IR Inten    --     48.2494                 1.8918                 1.5928

                     52                     53                     54
                      A                      A                      A
 Frequencies --   1362.5319              1371.5520              1382.9474
 Red. masses --      1.3129                 1.3394                 1.4305
 Frc consts  --      1.4360                 1.4845                 1.6119
 IR Inten    --      8.7799                 2.4874                11.9500

                     55                     56                     57
                      A                      A                      A
 Frequencies --   1388.3282              1404.9321              1409.0175
 Red. masses --      1.5153                 1.4703                 1.2985
 Frc consts  --      1.7208                 1.7099                 1.5189
 IR Inten    --     13.3666                24.3269                 7.4372

                     58                     59                     60
                      A                      A                      A
 Frequencies --   1416.1628              1432.7807              1441.7277
 Red. masses --      1.4095                 1.5522                 1.4584
 Frc consts  --      1.6655                 1.8774                 1.7861
 IR Inten    --     17.7407                83.9195                12.3449

                     61                     62                     63
                      A                      A                      A
 Frequencies --   1445.2473              1469.9822              1471.3901
 Red. masses --      1.5105                 1.0974                 1.1059
 Frc consts  --      1.8589                 1.3971                 1.4107
 IR Inten    --     41.2890                11.3807                 2.9042

                     64                     65                     66
                      A                      A                      A
 Frequencies --   1474.1244              1488.4948              1489.3860
 Red. masses --      1.1165                 1.1385                 1.1381
 Frc consts  --      1.4295                 1.4862                 1.4875
 IR Inten    --     12.2114                10.2993                30.3588

                     67                     68                     69
                      A                      A                      A
 Frequencies --   1498.0639              1506.8967              1507.6022
 Red. masses --      1.0844                 1.1156                 1.1062
 Frc consts  --      1.4339                 1.4926                 1.4814
 IR Inten    --      1.1878                13.9305                10.1249

                     70                     71                     72
                      A                      A                      A
 Frequencies --   3025.5031              3034.0204              3036.7539
 Red. masses --      1.0825                 1.0688                 1.0698
 Frc consts  --      5.8381                 5.7969                 5.8124
 IR Inten    --     65.8723                32.9008                84.6615

                     73                     74                     75
                      A                      A                      A
 Frequencies --   3041.4102              3053.6935              3059.0369
 Red. masses --      1.0698                 1.0764                 1.0686
 Frc consts  --      5.8305                 5.9138                 5.8918
 IR Inten    --     71.9945                16.6653                23.5693

                     76                     77                     78
                      A                      A                      A
 Frequencies --   3062.5981              3069.8827              3070.8363
 Red. masses --      1.0701                 1.0625                 1.0618
 Frc consts  --      5.9138                 5.8998                 5.8993
 IR Inten    --     60.7205                28.7124                68.3476

                     79                     80                     81
                      A                      A                      A
 Frequencies --   3072.4404              3118.6597              3119.8137
 Red. masses --      1.0628                 1.0960                 1.0985
 Frc consts  --      5.9112                 6.2804                 6.2994
 IR Inten    --     51.9596                34.7435                40.6374

                     82                     83                     84
                      A                      A                      A
 Frequencies --   3121.8268              3124.8714              3126.8833
 Red. masses --      1.1022                 1.1023                 1.1031
 Frc consts  --      6.3289                 6.3420                 6.3545
 IR Inten    --     52.3097                62.5650                46.4196

                     85                     86                     87
                      A                      A                      A
 Frequencies --   3137.7287              3140.7480              3143.3550
 Red. masses --      1.0969                 1.0968                 1.0966
 Frc consts  --      6.3628                 6.3745                 6.3838
 IR Inten    --     36.8254                41.5164                40.0500

 - Thermochemistry -
 -------------------
 Temperature   298.150 Kelvin.  Pressure   1.00000 Atm.
 Atom     1 has atomic number  6 and mass  12.00000

 Molecular mass:   186.12559 amu.
 Principal axes and moments of inertia in atomic units:
                           1         2         3
     Eigenvalues --   834.694534970.649545244.75533
           X            0.99997  -0.00145   0.00747
           Y            0.00145   1.00000  -0.00024
           Z           -0.00747   0.00025   0.99997
 This molecule is an asymmetric top.
 Rotational symmetry number  1.
 Warning -- assumption of classical behavior for rotation
           may cause significant error
 Rotational temperatures (Kelvin)      0.10377     0.01743     0.01651
 Rotational constants (GHZ):           2.16216     0.36308     0.34410
 Zero-point vibrational energy     738455.7 (Joules/Mol)
                                  176.49514 (Kcal/Mol)
 Warning -- explicit consideration of  18 degrees of freedom as
           vibrations may cause significant error
 Vibrational temperatures:     57.02    75.74   137.89   229.14   269.61
          (Kelvin)            352.03   363.80   389.82   474.02   502.40
                              547.21   629.89   653.68   675.96   687.73
                              751.55   778.53   848.64   953.86  1189.22
                             1214.03  1229.71  1265.80  1269.61  1297.52
                             1359.11  1362.84  1381.31  1426.96  1448.64
                             1452.00  1533.64  1541.14  1563.23  1614.71
                             1667.17  1678.41  1693.91  1696.60  1704.31
                             1734.95  1747.19  1803.48  1817.73  1820.36
                             1854.60  1875.10  1915.01  1923.95  1935.23
                             1944.75  1960.38  1973.36  1989.75  1997.49
                             2021.38  2027.26  2037.54  2061.45  2074.32
                             2079.39  2114.98  2117.00  2120.94  2141.61
                             2142.89  2155.38  2168.09  2169.10  4353.02
                             4365.28  4369.21  4375.91  4393.58  4401.27
                             4406.40  4416.88  4418.25  4420.56  4487.06
                             4488.72  4491.61  4495.99  4498.89  4514.49
                             4518.84  4522.59

 Zero-point correction=                           0.281263 (Hartree/Particle)
 Thermal correction to Energy=                    0.293023
 Thermal correction to Enthalpy=                  0.293967
 Thermal correction to Gibbs Free Energy=         0.242821
 Sum of electronic and zero-point Energies=           -617.223127
 Sum of electronic and thermal Energies=              -617.211367
 Sum of electronic and thermal Enthalpies=            -617.210423
 Sum of electronic and thermal Free Energies=         -617.261569

                     E (Thermal)             CV                S
                      KCal/Mol        Cal/Mol-Kelvin    Cal/Mol-Kelvin
 Total                  183.875             46.657            107.647
 Electronic               0.000              0.000              0.000
 Translational            0.889              2.981             41.570
 Rotational               0.889              2.981             31.454
 Vibrational            182.097             40.696             34.623
 Vibration     1          0.594              1.981              5.277
 Vibration     2          0.596              1.977              4.715
 Vibration     3          0.603              1.952              3.537
 Vibration     4          0.621              1.892              2.559
 Vibration     5          0.632              1.857              2.254
 Vibration     6          0.660              1.772              1.769
 Vibration     7          0.664              1.758              1.711
 Vibration     8          0.675              1.727              1.590
 Vibration     9          0.712              1.617              1.263
 Vibration    10          0.726              1.577              1.170
 Vibration    11          0.750              1.512              1.038
 Vibration    12          0.798              1.388              0.834
 Vibration    13          0.813              1.351              0.783
 Vibration    14          0.827              1.317              0.738
 Vibration    15          0.834              1.299              0.715
 Vibration    16          0.877              1.201              0.605
 Vibration    17          0.896              1.159              0.563
 Vibration    18          0.947              1.053              0.467

 Optimization completed.
    -- Stationary point found.
 Normal termination of Gaussian 16 at Sun Mar 10 09:45:41 2019.
