 Gaussian 16, Revision B.01,
 Gaussian 16:  ES64L-G16RevB.01 20-Dec-2017

 ----------------------------------------------------------------------
 #M062X/6-311++G(2d,2p) opt=ModRedundant freq=noraman SCRF=(SMD,solvent
 =water)
 ----------------------------------------------------------------------

 --------------------------------
 4c1_b1_4e_4c1_PHI.inp_extract_10
 --------------------------------
 Symbolic Z-matrix:
 Charge =  0 Multiplicity = 1

 SCF Done:  E(RM062X) =  -617.503873584     A.U. after   12 cycles
 SCF Done:  E(RM062X) =  -617.505509923     A.U. after   10 cycles
 SCF Done:  E(RM062X) =  -617.505684135     A.U. after   10 cycles
 SCF Done:  E(RM062X) =  -617.505763569     A.U. after    9 cycles
 SCF Done:  E(RM062X) =  -617.505771031     A.U. after    9 cycles
 SCF Done:  E(RM062X) =  -617.505772148     A.U. after    9 cycles
 SCF Done:  E(RM062X) =  -617.505772361     A.U. after    8 cycles
 Optimization completed.
    -- Stationary point found.
 Normal termination of Gaussian 16 at Sun Mar 10 07:16:43 2019.

 ----------------------------------------------------------------------
 #N Geom=AllCheck Guess=TCheck SCRF=Check GenChk RM062X/6-311++G(2d,2p)
  Freq
 ----------------------------------------------------------------------

 Structure from the checkpoint file:  "4c1_b1_4e_4c1_PHI.inp_extract_10.chk"
 --------------------------------
 4c1_b1_4e_4c1_PHI.inp_extract_10
 --------------------------------
 Charge =  0 Multiplicity = 1

                         Standard orientation:
 ---------------------------------------------------------------------
 Center     Atomic      Atomic             Coordinates (Angstroms)
 Number     Number       Type             X           Y           Z
 ---------------------------------------------------------------------
      1          6           0       -3.185603    1.213347   -0.180944
      2          6           0        1.917486   -1.235872    0.363298
      3          6           0        2.943555    1.240123   -0.634702
      4          8           0        2.955602   -1.190233   -0.603381
      5          8           0       -1.590559   -1.165129    0.017564
      6          6           0       -2.978145   -1.263167   -0.315690
      7          8           0        0.015292   -0.142037    1.269790
      8          6           0       -3.460336   -0.018877   -1.038330
      9          6           0        1.776533    1.256041    0.352064
     10          6           0       -1.329024   -0.066563    0.876717
     11          6           0        3.764483   -0.023390   -0.451176
     12          6           0        0.989126   -0.037355    0.226031
     13          6           0       -1.709096    1.246819    0.214795
     14          1           0       -3.454776    2.126040   -0.710884
     15          1           0       -3.800491    1.168206    0.722025
     16          1           0        2.346261   -1.245958    1.372552
     17          1           0        1.367505   -2.161556    0.203029
     18          1           0        2.566752    1.272539   -1.659409
     19          1           0        3.583422    2.110534   -0.489278
     20          1           0       -3.553096   -1.412167    0.605136
     21          1           0       -3.075758   -2.153714   -0.932209
     22          1           0       -2.934062    0.065537   -1.991938
     23          1           0       -4.524687   -0.120966   -1.251809
     24          1           0        2.158445    1.323913    1.374598
     25          1           0        1.123827    2.112196    0.180447
     26          1           0       -1.903792   -0.198600    1.799222
     27          1           0        4.551486   -0.100785   -1.198283
     28          1           0        4.222568   -0.037077    0.544295
     29          1           0        0.504772   -0.088143   -0.750041
     30          1           0       -1.091927    1.393714   -0.673962
     31          1           0       -1.502993    2.058847    0.912356
 ---------------------------------------------------------------------

 SCF Done:  E(RM062X) =  -617.505772361     A.U. after    1 cycles

 The electronic state is 1-A.
 Alpha  occ. eigenvalues --  -19.63607 -19.63088 -19.63055 -10.63431 -10.58193
 Alpha  occ. eigenvalues --  -10.57561 -10.57454 -10.57398 -10.52550 -10.52518
 Alpha  occ. eigenvalues --  -10.52414 -10.52411 -10.52265  -1.19988  -1.16303
 Alpha  occ. eigenvalues --   -1.13570  -0.90188  -0.89703  -0.86740  -0.83812
 Alpha  occ. eigenvalues --   -0.74473  -0.73742  -0.72606  -0.69479  -0.66115
 Alpha  occ. eigenvalues --   -0.63959  -0.59784  -0.57981  -0.56081  -0.55661
 Alpha  occ. eigenvalues --   -0.53384  -0.52706  -0.51738  -0.50859  -0.49785
 Alpha  occ. eigenvalues --   -0.48703  -0.46487  -0.45525  -0.45286  -0.44546
 Alpha  occ. eigenvalues --   -0.42539  -0.41458  -0.40259  -0.39641  -0.39372
 Alpha  occ. eigenvalues --   -0.38679  -0.37633  -0.37134  -0.35186  -0.32576
 Alpha  occ. eigenvalues --   -0.31591
 Alpha virt. eigenvalues --    0.00439   0.01260   0.01334   0.01584   0.02675
 Alpha virt. eigenvalues --    0.02924   0.03108   0.03815   0.04161   0.05016
 Alpha virt. eigenvalues --    0.05031   0.05200   0.06057   0.06080   0.07585

 Mulliken charges:
               1
     1  C   -0.493051
     2  C   -0.319375
     3  C   -0.367044
     4  O   -0.367476
     5  O   -0.404950
     6  C   -0.196497
     7  O   -0.328972
     8  C   -0.281289
     9  C   -0.208695
    10  C   -0.329619
    11  C   -0.187450
    12  C   -0.076742
    13  C   -0.004615
    14  H    0.168554
    15  H    0.197473
    16  H    0.200539
    17  H    0.206434
    18  H    0.168225
    19  H    0.188231
    20  H    0.166287
    21  H    0.199479
    22  H    0.163857
    23  H    0.180474
    24  H    0.209873
    25  H    0.180173
    26  H    0.269527
    27  H    0.209897
    28  H    0.156500
    29  H    0.301426
    30  H    0.198854
    31  H    0.199972
 Sum of Mulliken charges =  -0.00000

 Dipole moment (field-independent basis, Debye):
    X=             -2.5071    Y=              3.7303    Z=             -0.3801  Tot=              4.5106
 Quadrupole moment (field-independent basis, Debye-Ang):
   XX=            -66.3168   YY=            -82.2200   ZZ=            -82.1971
   XY=              6.7440   XZ=              2.4638   YZ=             -1.7623

  Exact polarizability: 186.965   3.589 171.222  -0.927   0.480 169.246
 Approx polarizability: 148.796   2.445 140.575  -1.091   1.206 143.049

                      1                      2                      3
                      A                      A                      A
 Frequencies --     38.3773                68.2844                77.3283
 Red. masses --      4.0763                 3.2529                 3.6433
 Frc consts  --      0.0035                 0.0089                 0.0128
 IR Inten    --      2.2656                 1.4298                 2.0248

                      4                      5                      6
                      A                      A                      A
 Frequencies --    142.6445               213.7085               243.0285
 Red. masses --      2.9513                 3.1336                 2.1782
 Frc consts  --      0.0354                 0.0843                 0.0758
 IR Inten    --      0.8162                 1.4175                 5.0125

                      7                      8                      9
                      A                      A                      A
 Frequencies --    254.7075               275.8466               342.2293
 Red. masses --      2.1700                 3.7070                 2.1271
 Frc consts  --      0.0829                 0.1662                 0.1468
 IR Inten    --     11.3621                 4.5977                 2.1513

                     10                     11                     12
                      A                      A                      A
 Frequencies --    360.5434               405.5820               429.9710
 Red. masses --      2.3363                 4.9047                 2.3077
 Frc consts  --      0.1789                 0.4754                 0.2514
 IR Inten    --     12.6755                11.2322                 6.4087

                     13                     14                     15
                      A                      A                      A
 Frequencies --    448.5095               461.0899               482.4272
 Red. masses --      4.0910                 3.4444                 2.3171
 Frc consts  --      0.4849                 0.4315                 0.3177
 IR Inten    --      4.6522                 1.8205                 2.2694

                     16                     17                     18
                      A                      A                      A
 Frequencies --    501.3720               556.6205               594.1903
 Red. masses --      4.3574                 1.8619                 2.0020
 Frc consts  --      0.6453                 0.3399                 0.4165
 IR Inten    --      9.6632                 6.3314                15.2111

                     19                     20                     21
                      A                      A                      A
 Frequencies --    667.0435               827.7583               835.5437
 Red. masses --      3.5638                 2.1883                 1.8222
 Frc consts  --      0.9343                 0.8834                 0.7495
 IR Inten    --      8.0565                 1.4954                 2.9190

                     22                     23                     24
                      A                      A                      A
 Frequencies --    861.0000               875.7788               882.1125
 Red. masses --      1.6792                 1.3903                 2.1987
 Frc consts  --      0.7334                 0.6283                 1.0080
 IR Inten    --     21.6071                13.5494                 0.1463

                     25                     26                     27
                      A                      A                      A
 Frequencies --    898.4616               937.5966               945.8984
 Red. masses --      2.3194                 2.3371                 2.3201
 Frc consts  --      1.1031                 1.2105                 1.2231
 IR Inten    --     14.0357                 7.3463                91.1747

                     28                     29                     30
                      A                      A                      A
 Frequencies --    965.1958               979.9613               997.4059
 Red. masses --      1.8402                 2.3460                 1.4210
 Frc consts  --      1.0101                 1.3274                 0.8329
 IR Inten    --     13.7861                26.6389                 5.0054

                     31                     32                     33
                      A                      A                      A
 Frequencies --   1006.3111              1051.7108              1060.5678
 Red. masses --      2.1164                 1.8726                 1.4874
 Frc consts  --      1.2627                 1.2204                 0.9857
 IR Inten    --     38.5885                40.5401                76.8577

                     34                     35                     36
                      A                      A                      A
 Frequencies --   1064.9783              1091.6752              1126.1376
 Red. masses --      2.5463                 2.5942                 4.6849
 Frc consts  --      1.7015                 1.8216                 3.5006
 IR Inten    --     43.0791                60.8930               288.2896

                     37                     38                     39
                      A                      A                      A
 Frequencies --   1153.1039              1158.1421              1166.4642
 Red. masses --      2.3070                 2.9009                 2.2749
 Frc consts  --      1.8073                 2.2925                 1.8237
 IR Inten    --      6.4946               137.7032                 8.7012

                     40                     41                     42
                      A                      A                      A
 Frequencies --   1188.6577              1204.4923              1215.0060
 Red. masses --      2.2156                 1.5246                 1.5311
 Frc consts  --      1.8444                 1.3032                 1.3317
 IR Inten    --      3.6699                20.7395                37.3894

                     43                     44                     45
                      A                      A                      A
 Frequencies --   1236.8526              1244.9602              1257.1320
 Red. masses --      1.6170                 1.6172                 3.2208
 Frc consts  --      1.4574                 1.4768                 2.9990
 IR Inten    --     61.6892                 5.9572               357.1482

                     46                     47                     48
                      A                      A                      A
 Frequencies --   1284.8852              1305.9377              1319.8857
 Red. masses --      1.2315                 1.2059                 1.2484
 Frc consts  --      1.1979                 1.2117                 1.2813
 IR Inten    --     11.1961                28.1961                36.9374

                     49                     50                     51
                      A                      A                      A
 Frequencies --   1331.3941              1340.9442              1353.3980
 Red. masses --      1.3210                 1.2599                 1.3029
 Frc consts  --      1.3797                 1.3348                 1.4061
 IR Inten    --     14.0649                 4.6490                17.7337

                     52                     53                     54
                      A                      A                      A
 Frequencies --   1363.8567              1368.1327              1382.2243
 Red. masses --      1.2159                 1.4441                 1.4239
 Frc consts  --      1.3326                 1.5926                 1.6029
 IR Inten    --     13.0159                 5.5899                 5.4937

                     55                     56                     57
                      A                      A                      A
 Frequencies --   1386.5066              1391.2311              1397.5227
 Red. masses --      1.5070                 1.4385                 1.3296
 Frc consts  --      1.7069                 1.6404                 1.5300
 IR Inten    --      2.8470                22.9222                 2.3413

                     58                     59                     60
                      A                      A                      A
 Frequencies --   1415.3866              1421.9226              1436.8077
 Red. masses --      1.3891                 1.3493                 1.4470
 Frc consts  --      1.6395                 1.6073                 1.7600
 IR Inten    --     10.9849                19.3604                 2.7200

                     61                     62                     63
                      A                      A                      A
 Frequencies --   1440.5335              1469.5350              1470.8022
 Red. masses --      1.4154                 1.0967                 1.1546
 Frc consts  --      1.7305                 1.3954                 1.4716
 IR Inten    --     63.5097                 5.8596                 9.9728

                     64                     65                     66
                      A                      A                      A
 Frequencies --   1473.1191              1487.1656              1490.4124
 Red. masses --      1.0921                 1.1263                 1.1199
 Frc consts  --      1.3963                 1.4676                 1.4656
 IR Inten    --     12.6895                15.3638                22.5265

                     67                     68                     69
                      A                      A                      A
 Frequencies --   1497.2780              1504.4140              1505.4690
 Red. masses --      1.0853                 1.0979                 1.1030
 Frc consts  --      1.4335                 1.4640                 1.4729
 IR Inten    --      1.0999                 5.6270                11.4447

                     70                     71                     72
                      A                      A                      A
 Frequencies --   3032.4957              3036.1610              3036.6050
 Red. masses --      1.0681                 1.0697                 1.0703
 Frc consts  --      5.7870                 5.8097                 5.8145
 IR Inten    --     55.0317                83.8345                66.1048

                     73                     74                     75
                      A                      A                      A
 Frequencies --   3055.5984              3059.7604              3060.0108
 Red. masses --      1.0846                 1.0654                 1.0679
 Frc consts  --      5.9666                 5.8767                 5.8917
 IR Inten    --     59.6745                16.0072                49.6359

                     76                     77                     78
                      A                      A                      A
 Frequencies --   3069.0902              3071.5597              3076.8382
 Red. masses --      1.0621                 1.0625                 1.0610
 Frc consts  --      5.8943                 5.9058                 5.9179
 IR Inten    --     42.2659                42.4145                35.3775

                     79                     80                     81
                      A                      A                      A
 Frequencies --   3099.0495              3118.0108              3118.5685
 Red. masses --      1.0835                 1.0987                 1.0959
 Frc consts  --      6.1311                 6.2931                 6.2797
 IR Inten    --     19.3588                38.5349                42.7690

                     82                     83                     84
                      A                      A                      A
 Frequencies --   3121.7503              3123.0420              3129.4237
 Red. masses --      1.1024                 1.1029                 1.1049
 Frc consts  --      6.3297                 6.3376                 6.3754
 IR Inten    --     53.2803                56.9429                63.1782

                     85                     86                     87
                      A                      A                      A
 Frequencies --   3136.8699              3139.4771              3142.5792
 Red. masses --      1.0970                 1.0970                 1.0959
 Frc consts  --      6.3599                 6.3704                 6.3767
 IR Inten    --     40.0466                42.1131                39.1456

 - Thermochemistry -
 -------------------
 Temperature   298.150 Kelvin.  Pressure   1.00000 Atm.
 Atom     1 has atomic number  6 and mass  12.00000

 Molecular mass:   186.12559 amu.
 Principal axes and moments of inertia in atomic units:
                           1         2         3
     Eigenvalues --  1006.238514363.463044738.12766
           X            0.99997   0.00577   0.00468
           Y           -0.00568   0.99983  -0.01771
           Z           -0.00478   0.01768   0.99983
 This molecule is an asymmetric top.
 Rotational symmetry number  1.
 Warning -- assumption of classical behavior for rotation
           may cause significant error
 Rotational temperatures (Kelvin)      0.08608     0.01985     0.01828
 Rotational constants (GHZ):           1.79355     0.41360     0.38090
 Zero-point vibrational energy     737270.9 (Joules/Mol)
                                  176.21197 (Kcal/Mol)
 Warning -- explicit consideration of  18 degrees of freedom as
           vibrations may cause significant error
 Vibrational temperatures:     55.22    98.25   111.26   205.23   307.48
          (Kelvin)            349.66   366.47   396.88   492.39   518.74
                              583.54   618.63   645.31   663.41   694.11
                              721.36   800.85   854.91   959.73  1190.96
                             1202.16  1238.79  1260.05  1269.16  1292.69
                             1348.99  1360.94  1388.70  1409.95  1435.04
                             1447.86  1513.18  1525.92  1532.27  1570.68
                             1620.26  1659.06  1666.31  1678.28  1710.21
                             1733.00  1748.12  1779.56  1791.22  1808.73
                             1848.66  1878.95  1899.02  1915.58  1929.32
                             1947.24  1962.29  1968.44  1988.71  1994.87
                             2001.67  2010.72  2036.43  2045.83  2067.25
                             2072.61  2114.33  2116.16  2119.49  2139.70
                             2144.37  2154.25  2164.52  2166.03  4363.08
                             4368.36  4369.00  4396.32  4402.31  4402.67
                             4415.74  4419.29  4426.88  4458.84  4486.12
                             4486.92  4491.50  4493.36  4502.54  4513.26
                             4517.01  4521.47

 Zero-point correction=                           0.280812 (Hartree/Particle)
 Thermal correction to Energy=                    0.292548
 Thermal correction to Enthalpy=                  0.293493
 Thermal correction to Gibbs Free Energy=         0.242450
 Sum of electronic and zero-point Energies=           -617.224961
 Sum of electronic and thermal Energies=              -617.213224
 Sum of electronic and thermal Enthalpies=            -617.212280
 Sum of electronic and thermal Free Energies=         -617.263322

                     E (Thermal)             CV                S
                      KCal/Mol        Cal/Mol-Kelvin    Cal/Mol-Kelvin
 Total                  183.577             46.787            107.427
 Electronic               0.000              0.000              0.000
 Translational            0.889              2.981             41.570
 Rotational               0.889              2.981             31.409
 Vibrational            181.799             40.825             34.448
 Vibration     1          0.594              1.982              5.341
 Vibration     2          0.598              1.969              4.202
 Vibration     3          0.599              1.964              3.958
 Vibration     4          0.616              1.911              2.768
 Vibration     5          0.644              1.820              2.012
 Vibration     6          0.659              1.774              1.781
 Vibration     7          0.665              1.755              1.698
 Vibration     8          0.677              1.718              1.559
 Vibration     9          0.721              1.591              1.202
 Vibration    10          0.735              1.554              1.120
 Vibration    11          0.771              1.458              0.942
 Vibration    12          0.791              1.405              0.859
 Vibration    13          0.808              1.364              0.800
 Vibration    14          0.819              1.336              0.763
 Vibration    15          0.839              1.289              0.704
 Vibration    16          0.857              1.247              0.655
 Vibration    17          0.912              1.125              0.531
 Vibration    18          0.952              1.044              0.460

 Optimization completed.
    -- Stationary point found.
 Normal termination of Gaussian 16 at Sun Mar 10 08:18:54 2019.
