 Gaussian 16, Revision B.01,
 Gaussian 16:  ES64L-G16RevB.01 20-Dec-2017

 ----------------------------------------------------------------------
 #M062X/6-311++G(2d,2p) opt=ModRedundant freq=noraman SCRF=(SMD,solvent
 =water)
 ----------------------------------------------------------------------

 --------------------------------
 4c1_b1_4e_4c1_PHI.inp_extract_13
 --------------------------------
 Symbolic Z-matrix:
 Charge =  0 Multiplicity = 1

 SCF Done:  E(RM062X) =  -617.498742111     A.U. after   12 cycles
 SCF Done:  E(RM062X) =  -617.500000628     A.U. after   10 cycles
 SCF Done:  E(RM062X) =  -617.500311517     A.U. after   10 cycles
 SCF Done:  E(RM062X) =  -617.500507345     A.U. after    9 cycles
 SCF Done:  E(RM062X) =  -617.500521548     A.U. after    9 cycles
 SCF Done:  E(RM062X) =  -617.500524514     A.U. after    8 cycles
 SCF Done:  E(RM062X) =  -617.500525328     A.U. after    8 cycles
 SCF Done:  E(RM062X) =  -617.500525722     A.U. after    7 cycles
 SCF Done:  E(RM062X) =  -617.500525761     A.U. after    6 cycles
 Optimization completed.
    -- Stationary point found.
 Normal termination of Gaussian 16 at Sun Mar 10 08:16:29 2019.

 ----------------------------------------------------------------------
 #N Geom=AllCheck Guess=TCheck SCRF=Check GenChk RM062X/6-311++G(2d,2p)
  Freq
 ----------------------------------------------------------------------

 Structure from the checkpoint file:  "4c1_b1_4e_4c1_PHI.inp_extract_13.chk"
 --------------------------------
 4c1_b1_4e_4c1_PHI.inp_extract_13
 --------------------------------
 Charge =  0 Multiplicity = 1

                         Standard orientation:
 ---------------------------------------------------------------------
 Center     Atomic      Atomic             Coordinates (Angstroms)
 Number     Number       Type             X           Y           Z
 ---------------------------------------------------------------------
      1          6           0       -3.004021    1.418191   -0.234485
      2          6           0        2.021535   -1.319146   -0.097648
      3          6           0        3.093971    1.328121   -0.092617
      4          8           0        3.162506   -0.972610   -0.866236
      5          8           0       -2.005351   -1.241676    0.089269
      6          6           0       -3.417139   -1.018699    0.069243
      7          8           0        0.006052   -0.592096    0.873592
      8          6           0       -3.766592    0.204587   -0.758803
      9          6           0        1.820210    1.032483    0.699192
     10          6           0       -1.308086   -0.141908    0.664435
     11          6           0        3.920353    0.064512   -0.243200
     12          6           0        1.080359   -0.130311    0.055220
     13          6           0       -1.505788    1.108304   -0.172807
     14          1           0       -3.176605    2.288073   -0.866650
     15          1           0       -3.363189    1.667137    0.767458
     16          1           0        2.330698   -1.664825    0.895967
     17          1           0        1.519163   -2.134005   -0.615434
     18          1           0        2.838248    1.705465   -1.085228
     19          1           0        3.688865    2.091604    0.408772
     20          1           0       -3.769789   -0.891338    1.098923
     21          1           0       -3.859983   -1.924530   -0.338377
     22          1           0       -3.496524    0.018232   -1.800708
     23          1           0       -4.843549    0.369734   -0.717355
     24          1           0        2.080779    0.740753    1.720536
     25          1           0        1.182224    1.913349    0.755347
     26          1           0       -1.729572    0.026293    1.662435
     27          1           0        4.789450    0.227924   -0.876804
     28          1           0        4.261347   -0.285435    0.737762
     29          1           0        0.723952    0.146084   -0.937011
     30          1           0       -1.133243    0.941740   -1.183774
     31          1           0       -0.956753    1.937997    0.269962
 ---------------------------------------------------------------------

 SCF Done:  E(RM062X) =  -617.500525761     A.U. after    1 cycles

 The electronic state is 1-A.
 Alpha  occ. eigenvalues --  -19.63552 -19.63113 -19.62902 -10.63560 -10.58394
 Alpha  occ. eigenvalues --  -10.57516 -10.57452 -10.57398 -10.52672 -10.52621
 Alpha  occ. eigenvalues --  -10.52526 -10.52398 -10.52247  -1.19679  -1.16355
 Alpha  occ. eigenvalues --   -1.13560  -0.90090  -0.89865  -0.86900  -0.83859
 Alpha  occ. eigenvalues --   -0.74577  -0.73829  -0.72608  -0.69197  -0.66190
 Alpha  occ. eigenvalues --   -0.63972  -0.59991  -0.57545  -0.56477  -0.55547
 Alpha  occ. eigenvalues --   -0.53425  -0.53003  -0.51846  -0.50431  -0.49887
 Alpha  occ. eigenvalues --   -0.49053  -0.46819  -0.45591  -0.45266  -0.44123
 Alpha  occ. eigenvalues --   -0.42836  -0.41445  -0.40201  -0.39400  -0.39131
 Alpha  occ. eigenvalues --   -0.38357  -0.37828  -0.37150  -0.34897  -0.32652
 Alpha  occ. eigenvalues --   -0.31812
 Alpha virt. eigenvalues --    0.00476   0.01294   0.01303   0.01616   0.02608
 Alpha virt. eigenvalues --    0.02898   0.03049   0.04035   0.04239   0.04808
 Alpha virt. eigenvalues --    0.05001   0.05181   0.06041   0.06184   0.07435

 Mulliken charges:
               1
     1  C   -0.554338
     2  C   -0.287450
     3  C   -0.377959
     4  O   -0.372189
     5  O   -0.409148
     6  C   -0.194181
     7  O   -0.393289
     8  C   -0.276688
     9  C   -0.238537
    10  C   -0.043251
    11  C   -0.215735
    12  C    0.002067
    13  C   -0.159222
    14  H    0.167823
    15  H    0.197252
    16  H    0.203687
    17  H    0.206749
    18  H    0.171370
    19  H    0.181842
    20  H    0.156599
    21  H    0.204767
    22  H    0.162333
    23  H    0.182774
    24  H    0.216299
    25  H    0.192353
    26  H    0.260892
    27  H    0.214730
    28  H    0.155799
    29  H    0.254766
    30  H    0.228695
    31  H    0.161193
 Sum of Mulliken charges =  -0.00000

 Dipole moment (field-independent basis, Debye):
    X=             -1.8721    Y=              4.8368    Z=              0.6912  Tot=              5.2323
 Quadrupole moment (field-independent basis, Debye-Ang):
   XX=            -67.7144   YY=            -82.7641   ZZ=            -82.1030
   XY=              3.3822   XZ=              4.8259   YZ=             -0.6889

  Exact polarizability: 190.214   3.626 171.106  -0.771  -0.219 166.333
 Approx polarizability: 150.105   2.180 141.038  -0.837   0.425 141.442

 ******    1 imaginary frequencies (negative Signs) ******

                      1                      2                      3
                      A                      A                      A
 Frequencies --    -58.1779                57.9858                84.7446
 Red. masses --      3.5384                 4.0273                 3.5013
 Frc consts  --      0.0071                 0.0080                 0.0148
 IR Inten    --      1.2124                 1.8369                 1.6520

                      4                      5                      6
                      A                      A                      A
 Frequencies --    148.6757               214.9980               242.8312
 Red. masses --      3.0185                 3.2232                 2.4309
 Frc consts  --      0.0393                 0.0878                 0.0845
 IR Inten    --      0.7485                 2.1510                10.0291

                      7                      8                      9
                      A                      A                      A
 Frequencies --    247.5536               283.5681               313.0744
 Red. masses --      2.0681                 3.0638                 3.7889
 Frc consts  --      0.0747                 0.1452                 0.2188
 IR Inten    --      6.4014                 4.9854                 6.5126

                     10                     11                     12
                      A                      A                      A
 Frequencies --    360.6645               375.6552               427.2433
 Red. masses --      1.9761                 2.7494                 2.7902
 Frc consts  --      0.1514                 0.2286                 0.3001
 IR Inten    --      7.3780                 7.2998                 7.4005

                     13                     14                     15
                      A                      A                      A
 Frequencies --    453.2276               468.3600               481.5152
 Red. masses --      3.8288                 2.8482                 2.8098
 Frc consts  --      0.4634                 0.3681                 0.3838
 IR Inten    --      2.4120                 2.4808                 3.1299

                     16                     17                     18
                      A                      A                      A
 Frequencies --    499.1288               548.6569               598.4698
 Red. masses --      3.4965                 1.8809                 2.1405
 Frc consts  --      0.5132                 0.3336                 0.4517
 IR Inten    --      1.2167                 6.9901                18.8344

                     19                     20                     21
                      A                      A                      A
 Frequencies --    660.5546               824.4879               832.4324
 Red. masses --      3.3594                 2.0828                 2.0944
 Frc consts  --      0.8636                 0.8342                 0.8551
 IR Inten    --      8.1335                10.4731                 4.5849

                     22                     23                     24
                      A                      A                      A
 Frequencies --    860.7850               874.3981               880.3652
 Red. masses --      1.5849                 1.4057                 2.2828
 Frc consts  --      0.6919                 0.6332                 1.0424
 IR Inten    --     13.2867                14.8729                 0.7525

                     25                     26                     27
                      A                      A                      A
 Frequencies --    900.0539               931.2745               942.9456
 Red. masses --      2.4235                 2.5061                 2.1838
 Frc consts  --      1.1567                 1.2806                 1.1440
 IR Inten    --     26.7661                19.7421                83.1239

                     28                     29                     30
                      A                      A                      A
 Frequencies --    963.6966               976.8285               998.3736
 Red. masses --      1.8252                 2.2947                 1.4408
 Frc consts  --      0.9987                 1.2901                 0.8462
 IR Inten    --     26.8385                10.1383                10.3103

                     31                     32                     33
                      A                      A                      A
 Frequencies --   1010.3499              1052.7491              1060.0803
 Red. masses --      2.1930                 1.8259                 1.5840
 Frc consts  --      1.3190                 1.1923                 1.0488
 IR Inten    --     39.1064                28.3266                79.6209

                     34                     35                     36
                      A                      A                      A
 Frequencies --   1069.5867              1091.0185              1114.5066
 Red. masses --      2.6899                 2.3866                 4.6740
 Frc consts  --      1.8131                 1.6737                 3.4206
 IR Inten    --     81.9980                62.2649               295.2641

                     37                     38                     39
                      A                      A                      A
 Frequencies --   1149.4569              1163.0887              1169.4243
 Red. masses --      2.3565                 2.5247                 2.3316
 Frc consts  --      1.8344                 2.0122                 1.8787
 IR Inten    --      7.4381               117.6106                19.3315

                     40                     41                     42
                      A                      A                      A
 Frequencies --   1187.2973              1203.9347              1213.4790
 Red. masses --      2.3120                 1.5355                 1.5219
 Frc consts  --      1.9202                 1.3113                 1.3204
 IR Inten    --      2.3016                 8.8718                40.5993

                     43                     44                     45
                      A                      A                      A
 Frequencies --   1234.2919              1248.3515              1262.5709
 Red. masses --      1.5741                 1.5686                 3.2427
 Frc consts  --      1.4129                 1.4403                 3.0456
 IR Inten    --     41.9354                41.4783               354.5644

                     46                     47                     48
                      A                      A                      A
 Frequencies --   1288.5308              1305.8868              1320.3635
 Red. masses --      1.2589                 1.2047                 1.2638
 Frc consts  --      1.2315                 1.2104                 1.2981
 IR Inten    --     21.2283                38.2780                35.0691

                     49                     50                     51
                      A                      A                      A
 Frequencies --   1331.9431              1340.0259              1356.0598
 Red. masses --      1.3225                 1.2412                 1.3151
 Frc consts  --      1.3823                 1.3132                 1.4248
 IR Inten    --     10.5591                 9.5060                 9.4342

                     52                     53                     54
                      A                      A                      A
 Frequencies --   1364.5505              1373.1461              1383.0184
 Red. masses --      1.3374                 1.3632                 1.4203
 Frc consts  --      1.4672                 1.5144                 1.6007
 IR Inten    --      3.4504                21.6835                14.3397

                     55                     56                     57
                      A                      A                      A
 Frequencies --   1386.1340              1389.2146              1406.6763
 Red. masses --      1.4748                 1.4870                 1.2846
 Frc consts  --      1.6696                 1.6908                 1.4976
 IR Inten    --     11.5773                28.7882                 1.2812

                     58                     59                     60
                      A                      A                      A
 Frequencies --   1415.8849              1425.1903              1438.2220
 Red. masses --      1.3743                 1.2960                 1.3954
 Frc consts  --      1.6233                 1.5510                 1.7006
 IR Inten    --      7.5552                15.1213                 8.3269

                     61                     62                     63
                      A                      A                      A
 Frequencies --   1445.5991              1470.0882              1470.8428
 Red. masses --      1.4159                 1.1270                 1.0967
 Frc consts  --      1.7433                 1.4350                 1.3979
 IR Inten    --     52.7973                 2.4076                 9.6007

                     64                     65                     66
                      A                      A                      A
 Frequencies --   1472.8355              1489.0344              1490.0632
 Red. masses --      1.1014                 1.1234                 1.1309
 Frc consts  --      1.4077                 1.4675                 1.4794
 IR Inten    --      9.4130                28.9780                 8.2329

                     67                     68                     69
                      A                      A                      A
 Frequencies --   1498.9380              1504.4958              1508.5860
 Red. masses --      1.0838                 1.0955                 1.1040
 Frc consts  --      1.4348                 1.4610                 1.4804
 IR Inten    --      0.7664                 5.9588                10.7542

                     70                     71                     72
                      A                      A                      A
 Frequencies --   3032.9873              3034.3796              3034.9925
 Red. masses --      1.0686                 1.0821                 1.0704
 Frc consts  --      5.7915                 5.8701                 5.8094
 IR Inten    --     38.8646                33.3586               100.7979

                     73                     74                     75
                      A                      A                      A
 Frequencies --   3037.5885              3060.3960              3062.7674
 Red. masses --      1.0712                 1.0673                 1.0677
 Frc consts  --      5.8234                 5.8895                 5.9009
 IR Inten    --    112.4507                24.6603                31.0511

                     76                     77                     78
                      A                      A                      A
 Frequencies --   3070.3337              3071.6580              3088.7224
 Red. masses --      1.0615                 1.0623                 1.0639
 Frc consts  --      5.8958                 5.9052                 5.9800
 IR Inten    --     47.4877                44.0021                21.6700

                     79                     80                     81
                      A                      A                      A
 Frequencies --   3110.4664              3119.7651              3122.2194
 Red. masses --      1.0819                 1.0974                 1.1003
 Frc consts  --      6.1674                 6.2931                 6.3195
 IR Inten    --     27.7453                33.9998                39.9462

                     82                     83                     84
                      A                      A                      A
 Frequencies --   3123.1507              3130.1589              3138.1771
 Red. masses --      1.1018                 1.0977                 1.0961
 Frc consts  --      6.3319                 6.3365                 6.3597
 IR Inten    --     58.6703                58.6310                42.0340

                     85                     86                     87
                      A                      A                      A
 Frequencies --   3140.6112              3141.3590              3148.8834
 Red. masses --      1.0978                 1.0960                 1.1031
 Frc consts  --      6.3796                 6.3724                 6.4445
 IR Inten    --     35.4381                52.9140                44.6156

 - Thermochemistry -
 -------------------
 Temperature   298.150 Kelvin.  Pressure   1.00000 Atm.
 Atom     1 has atomic number  6 and mass  12.00000

 Molecular mass:   186.12559 amu.
 Principal axes and moments of inertia in atomic units:
                           1         2         3
     Eigenvalues --   900.961464734.212785182.01473
           X            0.99998   0.00208   0.00629
           Y           -0.00204   0.99997  -0.00687
           Z           -0.00631   0.00686   0.99996
 This molecule is an asymmetric top.
 Rotational symmetry number  1.
 Warning -- assumption of classical behavior for rotation
           may cause significant error
 Rotational temperatures (Kelvin)      0.09613     0.01830     0.01671
 Rotational constants (GHZ):           2.00313     0.38121     0.34827
    1 imaginary frequencies ignored.
 Zero-point vibrational energy     737059.2 (Joules/Mol)
                                  176.16139 (Kcal/Mol)
 Warning -- explicit consideration of  17 degrees of freedom as
           vibrations may cause significant error
 Vibrational temperatures:     83.43   121.93   213.91   309.33   349.38
          (Kelvin)            356.17   407.99   450.44   518.92   540.48
                              614.71   652.09   673.87   692.79   718.13
                              789.39   861.06   950.39  1186.25  1197.68
                             1238.48  1258.06  1266.65  1294.98  1339.90
                             1356.69  1386.54  1405.44  1436.44  1453.67
                             1514.67  1525.22  1538.90  1569.73  1603.53
                             1653.81  1673.43  1682.54  1708.26  1732.19
                             1745.93  1775.87  1796.10  1816.56  1853.91
                             1878.88  1899.71  1916.37  1928.00  1951.07
                             1963.28  1975.65  1989.85  1994.34  1998.77
                             2023.89  2037.14  2050.53  2069.28  2079.89
                             2115.13  2116.21  2119.08  2142.39  2143.87
                             2156.64  2164.63  2170.52  4363.79  4365.80
                             4366.68  4370.41  4403.23  4406.64  4417.53
                             4419.43  4443.98  4475.27  4488.65  4492.18
                             4493.52  4503.60  4515.14  4518.64  4519.72
                             4530.54

 Zero-point correction=                           0.280731 (Hartree/Particle)
 Thermal correction to Energy=                    0.291669
 Thermal correction to Enthalpy=                  0.292614
 Thermal correction to Gibbs Free Energy=         0.243927
 Sum of electronic and zero-point Energies=           -617.219795
 Sum of electronic and thermal Energies=              -617.208856
 Sum of electronic and thermal Enthalpies=            -617.207912
 Sum of electronic and thermal Free Energies=         -617.256598

                     E (Thermal)             CV                S
                      KCal/Mol        Cal/Mol-Kelvin    Cal/Mol-Kelvin
 Total                  183.025             44.937            102.469
 Electronic               0.000              0.000              0.000
 Translational            0.889              2.981             41.570
 Rotational               0.889              2.981             31.469
 Vibrational            181.248             38.976             29.430
 Vibration     1          0.596              1.974              4.525
 Vibration     2          0.601              1.960              3.778
 Vibration     3          0.618              1.904              2.689
 Vibration     4          0.645              1.818              2.001
 Vibration     5          0.659              1.775              1.782
 Vibration     6          0.661              1.767              1.748
 Vibration     7          0.682              1.704              1.512
 Vibration     8          0.701              1.649              1.346
 Vibration     9          0.735              1.553              1.119
 Vibration    10          0.746              1.522              1.057
 Vibration    11          0.789              1.411              0.868
 Vibration    12          0.812              1.354              0.786
 Vibration    13          0.826              1.320              0.742
 Vibration    14          0.838              1.291              0.706
 Vibration    15          0.855              1.252              0.660
 Vibration    16          0.904              1.143              0.547
 Vibration    17          0.956              1.035              0.452

 Optimization completed.
    -- Stationary point found.
 Normal termination of Gaussian 16 at Sun Mar 10 09:18:02 2019.
