 Gaussian 16, Revision B.01,
 Gaussian 16:  ES64L-G16RevB.01 20-Dec-2017

 ----------------------------------------------------------------------
 #M062X/6-311++G(2d,2p) opt=ModRedundant freq=noraman SCRF=(SMD,solvent
 =water)
 ----------------------------------------------------------------------

 --------------------------------
 4c1_b1_4e_4c1_PHI.inp_extract_21
 --------------------------------
 Symbolic Z-matrix:
 Charge =  0 Multiplicity = 1

 SCF Done:  E(RM062X) =  -617.503332998     A.U. after   12 cycles
 SCF Done:  E(RM062X) =  -617.504925068     A.U. after   10 cycles
 SCF Done:  E(RM062X) =  -617.505055795     A.U. after    9 cycles
 SCF Done:  E(RM062X) =  -617.505072694     A.U. after    8 cycles
 SCF Done:  E(RM062X) =  -617.505074977     A.U. after    8 cycles
 SCF Done:  E(RM062X) =  -617.505075304     A.U. after    7 cycles
 Optimization completed.
    -- Stationary point found.
 Normal termination of Gaussian 16 at Sun Mar 10 08:52:27 2019.

 ----------------------------------------------------------------------
 #N Geom=AllCheck Guess=TCheck SCRF=Check GenChk RM062X/6-311++G(2d,2p)
  Freq
 ----------------------------------------------------------------------

 Structure from the checkpoint file:  "4c1_b1_4e_4c1_PHI.inp_extract_21.chk"
 --------------------------------
 4c1_b1_4e_4c1_PHI.inp_extract_21
 --------------------------------
 Charge =  0 Multiplicity = 1

                         Standard orientation:
 ---------------------------------------------------------------------
 Center     Atomic      Atomic             Coordinates (Angstroms)
 Number     Number       Type             X           Y           Z
 ---------------------------------------------------------------------
      1          6           0        3.325033   -0.871581    0.939234
      2          6           0       -2.239259   -1.113127   -0.667831
      3          6           0       -3.044261    1.193379    0.820771
      4          8           0       -3.482499   -1.056415    0.012786
      5          8           0        1.888046    0.816858   -0.890408
      6          6           0        3.100770    1.283297   -0.290772
      7          8           0        0.003971   -0.389567   -0.718907
      8          6           0        4.034677    0.131016    0.032795
      9          6           0       -1.663630    1.165367    0.165715
     10          6           0        1.177005   -0.045897   -0.022970
     11          6           0       -3.992731    0.276269    0.070239
     12          6           0       -1.191939   -0.276026    0.049455
     13          6           0        1.993827   -1.278470    0.309234
     14          1           0        3.946706   -1.748638    1.114106
     15          1           0        3.137079   -0.407715    1.911336
     16          1           0       -2.355848   -0.744413   -1.693794
     17          1           0       -1.936077   -2.157859   -0.699277
     18          1           0       -2.973554    0.859657    1.858280
     19          1           0       -3.448134    2.205738    0.824821
     20          1           0        2.853115    1.837846    0.621212
     21          1           0        3.541617    1.973314   -1.006333
     22          1           0        4.334359   -0.355401   -0.898217
     23          1           0        4.933439    0.524772    0.508225
     24          1           0       -1.724374    1.582705   -0.843173
     25          1           0       -0.948135    1.760702    0.733466
     26          1           0        0.927161    0.506296    0.891182
     27          1           0       -4.959259    0.208942    0.564830
     28          1           0       -4.145160    0.641785   -0.951439
     29          1           0       -1.029040   -0.701998    1.044889
     30          1           0        2.162328   -1.825531   -0.621421
     31          1           0        1.410672   -1.912578    0.978308
 ---------------------------------------------------------------------

 SCF Done:  E(RM062X) =  -617.505075304     A.U. after    1 cycles

 The electronic state is 1-A.
 Alpha  occ. eigenvalues --  -19.63544 -19.63184 -19.63181 -10.63357 -10.58530
 Alpha  occ. eigenvalues --  -10.57649 -10.57572 -10.57433 -10.52581 -10.52513
 Alpha  occ. eigenvalues --  -10.52489 -10.52323 -10.52265  -1.20040  -1.16427
 Alpha  occ. eigenvalues --   -1.13876  -0.90232  -0.89618  -0.87013  -0.83631
 Alpha  occ. eigenvalues --   -0.74406  -0.73189  -0.72874  -0.69752  -0.65615
 Alpha  occ. eigenvalues --   -0.64829  -0.59665  -0.58370  -0.56156  -0.55298
 Alpha  occ. eigenvalues --   -0.54085  -0.52446  -0.51943  -0.50769  -0.49829
 Alpha  occ. eigenvalues --   -0.47738  -0.46806  -0.45956  -0.45532  -0.45239
 Alpha  occ. eigenvalues --   -0.42237  -0.40962  -0.40331  -0.39855  -0.39210
 Alpha  occ. eigenvalues --   -0.39182  -0.37559  -0.37133  -0.35105  -0.32614
 Alpha  occ. eigenvalues --   -0.31755
 Alpha virt. eigenvalues --    0.00507   0.01261   0.01415   0.01533   0.02610
 Alpha virt. eigenvalues --    0.02921   0.02983   0.04065   0.04201   0.04707
 Alpha virt. eigenvalues --    0.05099   0.05187   0.05970   0.06120   0.07097

 Mulliken charges:
               1
     1  C   -0.387931
     2  C   -0.245541
     3  C   -0.377686
     4  O   -0.382417
     5  O   -0.405617
     6  C   -0.101626
     7  O   -0.391096
     8  C   -0.345257
     9  C   -0.173759
    10  C    0.005234
    11  C   -0.215133
    12  C   -0.231669
    13  C   -0.227042
    14  H    0.184011
    15  H    0.178480
    16  H    0.203510
    17  H    0.211002
    18  H    0.170693
    19  H    0.182642
    20  H    0.150018
    21  H    0.211132
    22  H    0.165683
    23  H    0.181501
    24  H    0.221718
    25  H    0.155897
    26  H    0.271250
    27  H    0.212290
    28  H    0.158771
    29  H    0.258432
    30  H    0.206925
    31  H    0.155585
 Sum of Mulliken charges =  -0.00000

 Dipole moment (field-independent basis, Debye):
    X=              1.8177    Y=              1.8775    Z=              3.5006  Tot=              4.3685
 Quadrupole moment (field-independent basis, Debye-Ang):
   XX=            -72.2974   YY=            -79.8390   ZZ=            -82.3485
   XY=             -7.9914   XZ=              4.6227   YZ=              1.7774

  Exact polarizability: 187.935   0.706 171.479  -1.848   0.803 168.565
 Approx polarizability: 148.123   0.824 141.365  -1.664   0.271 142.750

 ******    1 imaginary frequencies (negative Signs) ******

                      1                      2                      3
                      A                      A                      A
 Frequencies --    -38.5743                51.4378                72.4913
 Red. masses --      4.0512                 3.5854                 3.5590
 Frc consts  --      0.0036                 0.0056                 0.0110
 IR Inten    --      1.4757                 3.0583                 1.0511

                      4                      5                      6
                      A                      A                      A
 Frequencies --    145.5308               200.4338               246.8787
 Red. masses --      2.8220                 3.5060                 2.0551
 Frc consts  --      0.0352                 0.0830                 0.0738
 IR Inten    --      0.7576                 4.6047                 8.1187

                      7                      8                      9
                      A                      A                      A
 Frequencies --    249.5468               267.2804               329.1875
 Red. masses --      2.0609                 4.8981                 2.1983
 Frc consts  --      0.0756                 0.2062                 0.1404
 IR Inten    --      6.2882                 1.0557                 0.8638

                     10                     11                     12
                      A                      A                      A
 Frequencies --    359.1199               393.8492               432.0319
 Red. masses --      2.3211                 3.7039                 2.6418
 Frc consts  --      0.1764                 0.3385                 0.2905
 IR Inten    --     12.2780                 8.9983                11.6597

                     13                     14                     15
                      A                      A                      A
 Frequencies --    450.9379               464.3526               485.5893
 Red. masses --      3.5456                 2.8724                 3.6853
 Frc consts  --      0.4248                 0.3649                 0.5120
 IR Inten    --      4.6055                 0.2263                 5.1994

                     16                     17                     18
                      A                      A                      A
 Frequencies --    510.9750               541.3086               586.3768
 Red. masses --      2.8554                 2.2044                 1.8560
 Frc consts  --      0.4393                 0.3806                 0.3760
 IR Inten    --      5.1522                 6.2613                12.0912

                     19                     20                     21
                      A                      A                      A
 Frequencies --    657.8336               827.4782               842.4142
 Red. masses --      2.9570                 2.1875                 1.7519
 Frc consts  --      0.7539                 0.8825                 0.7325
 IR Inten    --      7.1124                 0.3257                 2.0888

                     22                     23                     24
                      A                      A                      A
 Frequencies --    860.0690               876.7821               881.6843
 Red. masses --      1.8138                 1.4105                 1.9828
 Frc consts  --      0.7905                 0.6389                 0.9082
 IR Inten    --     19.9408                16.0963                 6.5796

                     25                     26                     27
                      A                      A                      A
 Frequencies --    900.6948               942.7469               945.7105
 Red. masses --      2.3838                 2.1623                 2.3175
 Frc consts  --      1.1394                 1.1323                 1.2212
 IR Inten    --     15.0342                57.5632                35.9979

                     28                     29                     30
                      A                      A                      A
 Frequencies --    962.2750               988.8354              1001.2517
 Red. masses --      2.0519                 2.0625                 1.4263
 Frc consts  --      1.1194                 1.1882                 0.8425
 IR Inten    --      0.6930                43.3911                 4.7340

                     31                     32                     33
                      A                      A                      A
 Frequencies --   1011.6071              1058.0600              1064.5409
 Red. masses --      2.0220                 1.7051                 1.4967
 Frc consts  --      1.2191                 1.1246                 0.9993
 IR Inten    --     19.5381                24.2706                32.8012

                     34                     35                     36
                      A                      A                      A
 Frequencies --   1089.6707              1118.2667              1154.0818
 Red. masses --      2.7842                 3.4637                 2.2849
 Frc consts  --      1.9478                 2.5520                 1.7931
 IR Inten    --    120.4829                58.4803                 3.0885

                     37                     38                     39
                      A                      A                      A
 Frequencies --   1163.3472              1166.2203              1174.5939
 Red. masses --      2.5124                 2.4506                 2.4810
 Frc consts  --      2.0034                 1.9637                 2.0168
 IR Inten    --    113.7383               147.8907                45.8870

                     40                     41                     42
                      A                      A                      A
 Frequencies --   1183.4321              1207.4384              1212.3467
 Red. masses --      2.3585                 1.5017                 1.5207
 Frc consts  --      1.9462                 1.2899                 1.3169
 IR Inten    --      5.6430                32.3805                30.9040

                     43                     44                     45
                      A                      A                      A
 Frequencies --   1240.0144              1249.5735              1255.7166
 Red. masses --      2.5035                 1.8501                 1.7864
 Frc consts  --      2.2680                 1.7020                 1.6596
 IR Inten    --    258.6515               189.6780                53.7522

                     46                     47                     48
                      A                      A                      A
 Frequencies --   1280.1680              1303.5916              1325.9020
 Red. masses --      1.2501                 1.1800                 1.3153
 Frc consts  --      1.2071                 1.1815                 1.3624
 IR Inten    --     12.1297                16.7584                42.2687

                     49                     50                     51
                      A                      A                      A
 Frequencies --   1333.7329              1341.7877              1351.6686
 Red. masses --      1.3122                 1.2695                 1.3107
 Frc consts  --      1.3753                 1.3467                 1.4109
 IR Inten    --     26.6721                 4.8309                 6.6626

                     52                     53                     54
                      A                      A                      A
 Frequencies --   1361.0597              1366.6803              1381.6094
 Red. masses --      1.2440                 1.4409                 1.4398
 Frc consts  --      1.3578                 1.5857                 1.6193
 IR Inten    --     29.6683                 1.5571                12.4598

                     55                     56                     57
                      A                      A                      A
 Frequencies --   1385.9284              1397.1098              1398.7432
 Red. masses --      1.5084                 1.3741                 1.4593
 Frc consts  --      1.7071                 1.5803                 1.6822
 IR Inten    --      5.8628                21.5587                26.5922

                     58                     59                     60
                      A                      A                      A
 Frequencies --   1414.7018              1430.0584              1435.5176
 Red. masses --      1.3860                 1.4109                 1.5166
 Frc consts  --      1.6344                 1.7000                 1.8413
 IR Inten    --     15.7558                22.2118                31.1888

                     61                     62                     63
                      A                      A                      A
 Frequencies --   1452.1708              1470.6870              1470.8276
 Red. masses --      1.3812                 1.1052                 1.0995
 Frc consts  --      1.7161                 1.4085                 1.4014
 IR Inten    --     44.1040                 0.5821                11.7758

                     64                     65                     66
                      A                      A                      A
 Frequencies --   1474.1530              1487.3465              1489.4811
 Red. masses --      1.1399                 1.1336                 1.1309
 Frc consts  --      1.4595                 1.4775                 1.4783
 IR Inten    --     16.4542                10.2658                34.6897

                     67                     68                     69
                      A                      A                      A
 Frequencies --   1498.8299              1506.9800              1507.2740
 Red. masses --      1.0858                 1.1046                 1.1034
 Frc consts  --      1.4372                 1.4779                 1.4770
 IR Inten    --      0.7667                 8.3308                11.5802

                     70                     71                     72
                      A                      A                      A
 Frequencies --   3032.2536              3035.1415              3038.5654
 Red. masses --      1.0795                 1.0729                 1.0697
 Frc consts  --      5.8481                 5.8235                 5.8188
 IR Inten    --     65.8119                 6.1083                82.1532

                     73                     74                     75
                      A                      A                      A
 Frequencies --   3039.1294              3052.7834              3060.3998
 Red. masses --      1.0700                 1.0807                 1.0684
 Frc consts  --      5.8230                 5.9338                 5.8960
 IR Inten    --     68.2261                43.8198                22.3149

                     76                     77                     78
                      A                      A                      A
 Frequencies --   3063.2164              3068.4968              3069.8654
 Red. masses --      1.0663                 1.0611                 1.0611
 Frc consts  --      5.8952                 5.8866                 5.8916
 IR Inten    --     61.5189                28.1386                59.5505

                     79                     80                     81
                      A                      A                      A
 Frequencies --   3072.3831              3117.0808              3118.3741
 Red. masses --      1.0624                 1.1001                 1.0963
 Frc consts  --      5.9089                 6.2978                 6.2813
 IR Inten    --     43.1930                38.8760                44.0252

                     82                     83                     84
                      A                      A                      A
 Frequencies --   3120.1033              3123.3213              3124.2935
 Red. masses --      1.1026                 1.1045                 1.1025
 Frc consts  --      6.3243                 6.3481                 6.3405
 IR Inten    --     33.9266                77.8274                53.6421

                     85                     86                     87
                      A                      A                      A
 Frequencies --   3139.7229              3141.7143              3142.7828
 Red. masses --      1.0965                 1.0972                 1.0963
 Frc consts  --      6.3684                 6.3806                 6.3799
 IR Inten    --     42.5492                39.7856                39.3025

 - Thermochemistry -
 -------------------
 Temperature   298.150 Kelvin.  Pressure   1.00000 Atm.
 Atom     1 has atomic number  6 and mass  12.00000

 Molecular mass:   186.12559 amu.
 Principal axes and moments of inertia in atomic units:
                           1         2         3
     Eigenvalues --   834.016915052.093065399.50934
           X            0.99993  -0.01067   0.00446
           Y            0.01060   0.99980   0.01670
           Z           -0.00464  -0.01665   0.99985
 This molecule is an asymmetric top.
 Rotational symmetry number  1.
 Warning -- assumption of classical behavior for rotation
           may cause significant error
 Rotational temperatures (Kelvin)      0.10385     0.01714     0.01604
 Rotational constants (GHZ):           2.16391     0.35723     0.33424
    1 imaginary frequencies ignored.
 Zero-point vibrational energy     737196.6 (Joules/Mol)
                                  176.19422 (Kcal/Mol)
 Warning -- explicit consideration of  17 degrees of freedom as
           vibrations may cause significant error
 Vibrational temperatures:     74.01   104.30   209.39   288.38   355.20
          (Kelvin)            359.04   384.56   473.63   516.69   566.66
                              621.60   648.80   668.10   698.65   735.18
                              778.82   843.67   946.48  1190.56  1212.05
                             1237.45  1261.49  1268.55  1295.90  1356.40
                             1360.67  1384.50  1422.71  1440.58  1455.48
                             1522.31  1531.64  1567.79  1608.94  1660.47
                             1673.80  1677.93  1689.98  1702.69  1737.23
                             1744.30  1784.10  1797.86  1806.70  1841.88
                             1875.58  1907.68  1918.94  1930.53  1944.75
                             1958.26  1966.35  1987.83  1994.04  2010.13
                             2012.48  2035.44  2057.54  2065.39  2089.35
                             2115.99  2116.19  2120.98  2139.96  2143.03
                             2156.48  2168.21  2168.63  4362.74  4366.89
                             4371.82  4372.63  4392.27  4403.23  4407.29
                             4414.88  4416.85  4420.47  4484.78  4486.64
                             4489.13  4493.76  4495.16  4517.36  4520.23
                             4521.76

 Zero-point correction=                           0.280783 (Hartree/Particle)
 Thermal correction to Energy=                    0.291748
 Thermal correction to Enthalpy=                  0.292692
 Thermal correction to Gibbs Free Energy=         0.243718
 Sum of electronic and zero-point Energies=           -617.224292
 Sum of electronic and thermal Energies=              -617.213328
 Sum of electronic and thermal Enthalpies=            -617.212384
 Sum of electronic and thermal Free Energies=         -617.261358

                     E (Thermal)             CV                S
                      KCal/Mol        Cal/Mol-Kelvin    Cal/Mol-Kelvin
 Total                  183.074             44.788            103.074
 Electronic               0.000              0.000              0.000
 Translational            0.889              2.981             41.570
 Rotational               0.889              2.981             31.498
 Vibrational            181.297             38.827             30.006
 Vibration     1          0.596              1.977              4.761
 Vibration     2          0.599              1.967              4.085
 Vibration     3          0.617              1.908              2.730
 Vibration     4          0.638              1.839              2.129
 Vibration     5          0.661              1.768              1.753
 Vibration     6          0.662              1.764              1.734
 Vibration     7          0.672              1.733              1.614
 Vibration     8          0.712              1.617              1.264
 Vibration     9          0.734              1.556              1.126
 Vibration    10          0.761              1.483              0.986
 Vibration    11          0.793              1.400              0.852
 Vibration    12          0.810              1.359              0.793
 Vibration    13          0.822              1.329              0.754
 Vibration    14          0.842              1.282              0.695
 Vibration    15          0.866              1.226              0.631
 Vibration    16          0.896              1.159              0.562
 Vibration    17          0.943              1.061              0.474

 Optimization completed.
    -- Stationary point found.
 Normal termination of Gaussian 16 at Sun Mar 10 09:52:41 2019.
