 Gaussian 16, Revision B.01,
 Gaussian 16:  ES64L-G16RevB.01 20-Dec-2017

 ----------------------------------------------------------------------
 #M062X/6-311++G(2d,2p) opt=ModRedundant freq=noraman SCRF=(SMD,solvent
 =water)
 ----------------------------------------------------------------------

 --------------------------------
 4c1_b1_4e_4c1_PHI.inp_extract_17
 --------------------------------
 Symbolic Z-matrix:
 Charge =  0 Multiplicity = 1

 SCF Done:  E(RM062X) =  -617.502014797     A.U. after   12 cycles
 SCF Done:  E(RM062X) =  -617.503772379     A.U. after   10 cycles
 SCF Done:  E(RM062X) =  -617.503957516     A.U. after   10 cycles
 SCF Done:  E(RM062X) =  -617.504026263     A.U. after    9 cycles
 SCF Done:  E(RM062X) =  -617.504028534     A.U. after    8 cycles
 SCF Done:  E(RM062X) =  -617.504029509     A.U. after    8 cycles
 Optimization completed.
    -- Stationary point found.
 Normal termination of Gaussian 16 at Sun Mar 10 08:39:37 2019.

 ----------------------------------------------------------------------
 #N Geom=AllCheck Guess=TCheck SCRF=Check GenChk RM062X/6-311++G(2d,2p)
  Freq
 ----------------------------------------------------------------------

 Structure from the checkpoint file:  "4c1_b1_4e_4c1_PHI.inp_extract_17.chk"
 --------------------------------
 4c1_b1_4e_4c1_PHI.inp_extract_17
 --------------------------------
 Charge =  0 Multiplicity = 1

                         Standard orientation:
 ---------------------------------------------------------------------
 Center     Atomic      Atomic             Coordinates (Angstroms)
 Number     Number       Type             X           Y           Z
 ---------------------------------------------------------------------
      1          6           0       -2.901015    1.399185   -0.485542
      2          6           0        2.240286   -1.241133   -0.470098
      3          6           0        2.939993    1.358808    0.479364
      4          8           0        3.460116   -0.616661   -0.834087
      5          8           0       -2.183037   -1.232582    0.347411
      6          6           0       -3.471786   -0.716004    0.687317
      7          8           0       -0.011678   -0.954999    0.105500
      8          6           0       -3.938533    0.289225   -0.348400
      9          6           0        1.576241    0.770926    0.842108
     10          6           0       -1.196604   -0.221155    0.324611
     11          6           0        3.934314    0.247389    0.199071
     12          6           0        1.147097   -0.205994   -0.244326
     13          6           0       -1.515076    0.806230   -0.748416
     14          1           0       -3.168638    2.086815   -1.286585
     15          1           0       -2.870285    1.978817    0.441084
     16          1           0        2.377835   -1.827057    0.446151
     17          1           0        1.966390   -1.911636   -1.282398
     18          1           0        2.849751    1.986682   -0.409771
     19          1           0        3.315671    1.984177    1.289159
     20          1           0       -3.420245   -0.249149    1.676896
     21          1           0       -4.132218   -1.577955    0.744524
     22          1           0       -4.068561   -0.221530   -1.305090
     23          1           0       -4.906882    0.690893   -0.048960
     24          1           0        1.645757    0.222725    1.786061
     25          1           0        0.838331    1.563468    0.968619
     26          1           0       -1.161313    0.258953    1.312201
     27          1           0        4.886975    0.641389   -0.148135
     28          1           0        4.107769   -0.344753    1.104576
     29          1           0        0.981233    0.327133   -1.184178
     30          1           0       -1.488701    0.303491   -1.718472
     31          1           0       -0.765580    1.596607   -0.750404
 ---------------------------------------------------------------------

 SCF Done:  E(RM062X) =  -617.504029509     A.U. after    1 cycles

 The electronic state is 1-A.
 Alpha  occ. eigenvalues --  -19.63561 -19.63297 -19.63173 -10.63543 -10.58460
 Alpha  occ. eigenvalues --  -10.57629 -10.57583 -10.57422 -10.52615 -10.52603
 Alpha  occ. eigenvalues --  -10.52560 -10.52494 -10.52249  -1.20160  -1.16454
 Alpha  occ. eigenvalues --   -1.13829  -0.89937  -0.89814  -0.87064  -0.83841
 Alpha  occ. eigenvalues --   -0.74729  -0.73915  -0.72377  -0.69286  -0.66010
 Alpha  occ. eigenvalues --   -0.64175  -0.59906  -0.57844  -0.56746  -0.55552
 Alpha  occ. eigenvalues --   -0.53627  -0.52920  -0.51454  -0.50218  -0.49963
 Alpha  occ. eigenvalues --   -0.49419  -0.46935  -0.45609  -0.45446  -0.44581
 Alpha  occ. eigenvalues --   -0.43226  -0.40980  -0.40346  -0.39780  -0.39193
 Alpha  occ. eigenvalues --   -0.39040  -0.37326  -0.37144  -0.34818  -0.32722
 Alpha  occ. eigenvalues --   -0.31779
 Alpha virt. eigenvalues --    0.00513   0.01266   0.01360   0.01639   0.02605
 Alpha virt. eigenvalues --    0.02921   0.03087   0.04144   0.04275   0.04816
 Alpha virt. eigenvalues --    0.05029   0.05337   0.05997   0.06321   0.07304

 Mulliken charges:
               1
     1  C   -0.475350
     2  C   -0.248677
     3  C   -0.374279
     4  O   -0.385412
     5  O   -0.420670
     6  C   -0.086989
     7  O   -0.425955
     8  C   -0.341592
     9  C   -0.196844
    10  C   -0.010910
    11  C   -0.245649
    12  C   -0.224816
    13  C   -0.210491
    14  H    0.172714
    15  H    0.191737
    16  H    0.199933
    17  H    0.215661
    18  H    0.174194
    19  H    0.179377
    20  H    0.141688
    21  H    0.220339
    22  H    0.164508
    23  H    0.186595
    24  H    0.236211
    25  H    0.187353
    26  H    0.296934
    27  H    0.216097
    28  H    0.158892
    29  H    0.286145
    30  H    0.232742
    31  H    0.186511
 Sum of Mulliken charges =  -0.00000

 Dipole moment (field-independent basis, Debye):
    X=             -1.6219    Y=              5.1384    Z=              1.8734  Tot=              5.7047
 Quadrupole moment (field-independent basis, Debye-Ang):
   XX=            -72.8720   YY=            -83.7956   ZZ=            -79.6873
   XY=              0.0053   XZ=              6.1384   YZ=              0.1072

  Exact polarizability: 188.704   3.114 171.474  -1.468   0.771 167.021
 Approx polarizability: 148.903   2.358 142.658  -1.337   0.942 140.760

                      1                      2                      3
                      A                      A                      A
 Frequencies --     46.5633                70.9030                93.0205
 Red. masses --      3.8291                 3.3151                 3.7287
 Frc consts  --      0.0049                 0.0098                 0.0190
 IR Inten    --      0.7492                 1.0141                 0.9847

                      4                      5                      6
                      A                      A                      A
 Frequencies --    168.7458               190.5426               247.3700
 Red. masses --      3.2627                 3.0659                 2.0682
 Frc consts  --      0.0547                 0.0656                 0.0746
 IR Inten    --      0.9364                 3.6192                 1.5600

                      7                      8                      9
                      A                      A                      A
 Frequencies --    264.1380               273.0956               317.7959
 Red. masses --      2.2928                 4.2214                 4.3689
 Frc consts  --      0.0942                 0.1855                 0.2600
 IR Inten    --     10.8528                 0.9315                10.2408

                     10                     11                     12
                      A                      A                      A
 Frequencies --    350.2468               378.5521               436.8165
 Red. masses --      1.8822                 2.3368                 3.2187
 Frc consts  --      0.1360                 0.1973                 0.3619
 IR Inten    --      2.8458                16.0558                 7.3090

                     13                     14                     15
                      A                      A                      A
 Frequencies --    455.3292               471.0591               483.2556
 Red. masses --      3.5414                 3.0839                 2.2944
 Frc consts  --      0.4326                 0.4032                 0.3157
 IR Inten    --      2.2898                 2.3684                 2.8712

                     16                     17                     18
                      A                      A                      A
 Frequencies --    524.9534               542.4767               596.1987
 Red. masses --      3.1713                 2.0679                 2.1822
 Frc consts  --      0.5149                 0.3585                 0.4570
 IR Inten    --      3.3151                22.8173                 4.9712

                     19                     20                     21
                      A                      A                      A
 Frequencies --    661.9353               828.1246               843.9890
 Red. masses --      3.0797                 2.1990                 1.8652
 Frc consts  --      0.7950                 0.8885                 0.7828
 IR Inten    --     10.0020                 0.7374                 2.7004

                     22                     23                     24
                      A                      A                      A
 Frequencies --    854.4216               880.9110               884.3467
 Red. masses --      1.6324                 1.5241                 1.9762
 Frc consts  --      0.7022                 0.6968                 0.9106
 IR Inten    --     19.5665                15.4000                 5.0482

                     25                     26                     27
                      A                      A                      A
 Frequencies --    901.1363               943.6934               949.0374
 Red. masses --      2.4148                 2.1935                 2.2828
 Frc consts  --      1.1554                 1.1509                 1.2114
 IR Inten    --     15.5922                45.8321                32.7528

                     28                     29                     30
                      A                      A                      A
 Frequencies --    961.3492               991.7838              1007.0117
 Red. masses --      1.9000                 2.1228                 1.5304
 Frc consts  --      1.0346                 1.2303                 0.9144
 IR Inten    --      3.4086                16.8546                 9.3029

                     31                     32                     33
                      A                      A                      A
 Frequencies --   1009.4227              1063.3583              1073.2922
 Red. masses --      2.0247                 1.7132                 1.6650
 Frc consts  --      1.2155                 1.1413                 1.1301
 IR Inten    --     32.4501                15.3300                45.5971

                     34                     35                     36
                      A                      A                      A
 Frequencies --   1085.3379              1123.3267              1154.1785
 Red. masses --      2.6322                 3.2031                 2.4465
 Frc consts  --      1.8269                 2.3814                 1.9202
 IR Inten    --     80.5832                70.1317                18.3775

                     37                     38                     39
                      A                      A                      A
 Frequencies --   1166.9991              1174.3880              1176.9200
 Red. masses --      2.2695                 1.9828                 2.2680
 Frc consts  --      1.8210                 1.6112                 1.8509
 IR Inten    --     61.2490                32.9233               123.2575

                     40                     41                     42
                      A                      A                      A
 Frequencies --   1185.3101              1204.0224              1212.5469
 Red. masses --      2.4867                 1.4584                 1.5506
 Frc consts  --      2.0584                 1.2456                 1.3432
 IR Inten    --     13.4157                25.3504                30.0356

                     43                     44                     45
                      A                      A                      A
 Frequencies --   1252.0229              1261.6011              1262.5962
 Red. masses --      1.7589                 3.1701                 1.5675
 Frc consts  --      1.6245                 2.9728                 1.4723
 IR Inten    --     75.9209               376.6625                80.6232

                     46                     47                     48
                      A                      A                      A
 Frequencies --   1287.4331              1303.6526              1329.8822
 Red. masses --      1.2369                 1.1815                 1.4238
 Frc consts  --      1.2079                 1.1831                 1.4837
 IR Inten    --     17.1629                16.0914                39.7728

                     49                     50                     51
                      A                      A                      A
 Frequencies --   1335.4888              1345.3421              1353.1117
 Red. masses --      1.3291                 1.2394                 1.2805
 Frc consts  --      1.3967                 1.3217                 1.3813
 IR Inten    --     29.5079                 1.7644                 2.8192

                     52                     53                     54
                      A                      A                      A
 Frequencies --   1361.9179              1369.2773              1381.4558
 Red. masses --      1.2656                 1.3251                 1.4289
 Frc consts  --      1.3831                 1.4638                 1.6067
 IR Inten    --     15.0386                 2.6351                18.2530

                     55                     56                     57
                      A                      A                      A
 Frequencies --   1391.0744              1399.3048              1401.9517
 Red. masses --      1.5091                 1.3349                 1.4942
 Frc consts  --      1.7206                 1.5400                 1.7303
 IR Inten    --      7.4865                35.5285                36.0443

                     58                     59                     60
                      A                      A                      A
 Frequencies --   1415.5300              1427.5462              1437.9467
 Red. masses --      1.3960                 1.4570                 1.5164
 Frc consts  --      1.6481                 1.7494                 1.8474
 IR Inten    --     14.6538                46.6515                39.0114

                     61                     62                     63
                      A                      A                      A
 Frequencies --   1442.2586              1470.2653              1471.6944
 Red. masses --      1.5868                 1.1040                 1.0978
 Frc consts  --      1.9448                 1.4061                 1.4010
 IR Inten    --     23.6485                10.3626                 5.1102

                     64                     65                     66
                      A                      A                      A
 Frequencies --   1474.3207              1489.1208              1494.4010
 Red. masses --      1.1135                 1.1351                 1.1278
 Frc consts  --      1.4260                 1.4831                 1.4839
 IR Inten    --     11.4827                22.2403                13.2094

                     67                     68                     69
                      A                      A                      A
 Frequencies --   1498.9634              1505.6113              1508.0684
 Red. masses --      1.0881                 1.1109                 1.1040
 Frc consts  --      1.4405                 1.4838                 1.4793
 IR Inten    --      1.3210                12.7270                 8.5894

                     70                     71                     72
                      A                      A                      A
 Frequencies --   3011.7972              3034.8937              3037.6785
 Red. masses --      1.0828                 1.0684                 1.0696
 Frc consts  --      5.7871                 5.7977                 5.8149
 IR Inten    --     81.5922                46.0627                78.4901

                     73                     74                     75
                      A                      A                      A
 Frequencies --   3040.8095              3057.3273              3059.9300
 Red. masses --      1.0700                 1.0673                 1.0689
 Frc consts  --      5.8292                 5.8777                 5.8967
 IR Inten    --     71.4817                15.5479                22.8660

                     76                     77                     78
                      A                      A                      A
 Frequencies --   3069.5903              3070.6840              3072.1884
 Red. masses --      1.0710                 1.0631                 1.0626
 Frc consts  --      5.9455                 5.9059                 5.9091
 IR Inten    --     12.8406                31.1245                47.7475

                     79                     80                     81
                      A                      A                      A
 Frequencies --   3073.5591              3116.7358              3120.0352
 Red. masses --      1.0709                 1.0990                 1.0968
 Frc consts  --      5.9605                 6.2899                 6.2907
 IR Inten    --    106.7607                33.2221                41.0104

                     82                     83                     84
                      A                      A                      A
 Frequencies --   3123.0833              3123.2692              3134.7145
 Red. masses --      1.1020                 1.1025                 1.1006
 Frc consts  --      6.3327                 6.3363                 6.3717
 IR Inten    --     32.4590                85.5811                44.6979

                     85                     86                     87
                      A                      A                      A
 Frequencies --   3138.4249              3140.2535              3143.8617
 Red. masses --      1.0964                 1.0975                 1.0963
 Frc consts  --      6.3627                 6.3766                 6.3845
 IR Inten    --     39.2607                37.5436                38.9499

 - Thermochemistry -
 -------------------
 Temperature   298.150 Kelvin.  Pressure   1.00000 Atm.
 Atom     1 has atomic number  6 and mass  12.00000

 Molecular mass:   186.12559 amu.
 Principal axes and moments of inertia in atomic units:
                           1         2         3
     Eigenvalues --   835.731604911.765855254.76501
           X            0.99997  -0.00143   0.00735
           Y            0.00143   1.00000  -0.00049
           Z           -0.00735   0.00050   0.99997
 This molecule is an asymmetric top.
 Rotational symmetry number  1.
 Warning -- assumption of classical behavior for rotation
           may cause significant error
 Rotational temperatures (Kelvin)      0.10364     0.01763     0.01648
 Rotational constants (GHZ):           2.15947     0.36743     0.34345
 Zero-point vibrational energy     738625.7 (Joules/Mol)
                                  176.53579 (Kcal/Mol)
 Warning -- explicit consideration of  18 degrees of freedom as
           vibrations may cause significant error
 Vibrational temperatures:     66.99   102.01   133.84   242.79   274.15
          (Kelvin)            355.91   380.04   392.92   457.24   503.93
                              544.65   628.48   655.12   677.75   695.30
                              755.29   780.50   857.80   952.38  1191.49
                             1214.31  1229.32  1267.43  1272.38  1296.53
                             1357.76  1365.45  1383.17  1426.96  1448.87
                             1452.33  1529.94  1544.23  1561.56  1616.22
                             1660.61  1679.05  1689.68  1693.33  1705.40
                             1732.32  1744.58  1801.38  1815.16  1816.59
                             1852.33  1875.67  1913.40  1921.47  1935.65
                             1946.83  1959.50  1970.08  1987.61  2001.45
                             2013.29  2017.10  2036.63  2053.92  2068.88
                             2075.09  2115.38  2117.44  2121.22  2142.51
                             2150.11  2156.67  2166.24  2169.77  4333.30
                             4366.54  4370.54  4375.05  4398.81  4402.56
                             4416.46  4418.03  4420.19  4422.17  4484.29
                             4489.03  4493.42  4493.69  4510.15  4515.49
                             4518.12  4523.32

 Zero-point correction=                           0.281328 (Hartree/Particle)
 Thermal correction to Energy=                    0.293002
 Thermal correction to Enthalpy=                  0.293946
 Thermal correction to Gibbs Free Energy=         0.243313
 Sum of electronic and zero-point Energies=           -617.222702
 Sum of electronic and thermal Energies=              -617.211028
 Sum of electronic and thermal Enthalpies=            -617.210083
 Sum of electronic and thermal Free Energies=         -617.260717

                     E (Thermal)             CV                S
                      KCal/Mol        Cal/Mol-Kelvin    Cal/Mol-Kelvin
 Total                  183.861             46.607            106.567
 Electronic               0.000              0.000              0.000
 Translational            0.889              2.981             41.570
 Rotational               0.889              2.981             31.445
 Vibrational            182.084             40.646             33.552
 Vibration     1          0.595              1.979              4.958
 Vibration     2          0.598              1.968              4.128
 Vibration     3          0.602              1.954              3.596
 Vibration     4          0.625              1.881              2.449
 Vibration     5          0.634              1.853              2.223
 Vibration     6          0.661              1.767              1.749
 Vibration     7          0.671              1.739              1.634
 Vibration     8          0.676              1.723              1.577
 Vibration     9          0.704              1.640              1.321
 Vibration    10          0.727              1.575              1.165
 Vibration    11          0.749              1.516              1.045
 Vibration    12          0.797              1.390              0.837
 Vibration    13          0.814              1.349              0.780
 Vibration    14          0.828              1.314              0.735
 Vibration    15          0.839              1.287              0.701
 Vibration    16          0.880              1.195              0.599
 Vibration    17          0.898              1.156              0.560
 Vibration    18          0.954              1.040              0.456

 Optimization completed.
    -- Stationary point found.
 Normal termination of Gaussian 16 at Sun Mar 10 09:42:06 2019.
