 Gaussian 16, Revision B.01,
 Gaussian 16:  ES64L-G16RevB.01 20-Dec-2017

 ----------------------------------------------------------------------
 #M062X/6-311++G(2d,2p) opt=ModRedundant freq=noraman SCRF=(SMD,solvent
 =water)
 ----------------------------------------------------------------------

 --------------------------------
 4c1_b1_4e_4c1_PHI.inp_extract_11
 --------------------------------
 Symbolic Z-matrix:
 Charge =  0 Multiplicity = 1

 SCF Done:  E(RM062X) =  -617.503212159     A.U. after   12 cycles
 SCF Done:  E(RM062X) =  -617.504727383     A.U. after   10 cycles
 SCF Done:  E(RM062X) =  -617.505000290     A.U. after   10 cycles
 SCF Done:  E(RM062X) =  -617.505140194     A.U. after    9 cycles
 SCF Done:  E(RM062X) =  -617.505147359     A.U. after    9 cycles
 SCF Done:  E(RM062X) =  -617.505148774     A.U. after    7 cycles
 SCF Done:  E(RM062X) =  -617.505148759     A.U. after    7 cycles
 Optimization completed.
    -- Stationary point found.
 Normal termination of Gaussian 16 at Sun Mar 10 07:24:07 2019.

 ----------------------------------------------------------------------
 #N Geom=AllCheck Guess=TCheck SCRF=Check GenChk RM062X/6-311++G(2d,2p)
  Freq
 ----------------------------------------------------------------------

 Structure from the checkpoint file:  "4c1_b1_4e_4c1_PHI.inp_extract_11.chk"
 --------------------------------
 4c1_b1_4e_4c1_PHI.inp_extract_11
 --------------------------------
 Charge =  0 Multiplicity = 1

                         Standard orientation:
 ---------------------------------------------------------------------
 Center     Atomic      Atomic             Coordinates (Angstroms)
 Number     Number       Type             X           Y           Z
 ---------------------------------------------------------------------
      1          6           0       -3.088877    1.318916   -0.097563
      2          6           0        2.002100   -1.290950    0.213496
      3          6           0        2.924313    1.324307   -0.469680
      4          8           0        3.067397   -1.089212   -0.701372
      5          8           0       -1.746767   -1.216339   -0.042835
      6          6           0       -3.152442   -1.160150   -0.297354
      7          8           0        0.015138   -0.432243    1.150856
      8          6           0       -3.541102    0.146788   -0.963505
      9          6           0        1.725163    1.174567    0.466857
     10          6           0       -1.319237   -0.166271    0.814996
     11          6           0        3.806873    0.092357   -0.392543
     12          6           0        1.011727   -0.134701    0.168980
     13          6           0       -1.593952    1.195717    0.202900
     14          1           0       -3.294448    2.269423   -0.587929
     15          1           0       -3.648070    1.309581    0.841854
     16          1           0        2.396746   -1.389031    1.231897
     17          1           0        1.508281   -2.219995   -0.065610
     18          1           0        2.580572    1.450647   -1.498744
     19          1           0        3.509554    2.205208   -0.205651
     20          1           0       -3.687645   -1.272568    0.652438
     21          1           0       -3.378843   -2.018772   -0.925339
     22          1           0       -3.064543    0.202672   -1.944923
     23          1           0       -4.620794    0.162715   -1.114660
     24          1           0        2.069042    1.142526    1.504548
     25          1           0        1.043001    2.017382    0.365884
     26          1           0       -1.869828   -0.255414    1.757822
     27          1           0        4.621132    0.137994   -1.112523
     28          1           0        4.231566   -0.007988    0.612686
     29          1           0        0.565150   -0.109827   -0.827026
     30          1           0       -1.024915    1.309578   -0.721198
     31          1           0       -1.269497    1.964728    0.903780
 ---------------------------------------------------------------------

 SCF Done:  E(RM062X) =  -617.505148759     A.U. after    1 cycles

 The electronic state is 1-A.
 Alpha  occ. eigenvalues --  -19.63681 -19.63107 -19.62969 -10.63454 -10.58307
 Alpha  occ. eigenvalues --  -10.57505 -10.57505 -10.57396 -10.52587 -10.52534
 Alpha  occ. eigenvalues --  -10.52529 -10.52411 -10.52257  -1.19914  -1.16346
 Alpha  occ. eigenvalues --   -1.13577  -0.90119  -0.89807  -0.86834  -0.83849
 Alpha  occ. eigenvalues --   -0.74532  -0.73793  -0.72598  -0.69415  -0.66117
 Alpha  occ. eigenvalues --   -0.63993  -0.59804  -0.57891  -0.56119  -0.55666
 Alpha  occ. eigenvalues --   -0.53326  -0.52899  -0.51803  -0.50785  -0.49923
 Alpha  occ. eigenvalues --   -0.48750  -0.46616  -0.45590  -0.45258  -0.44509
 Alpha  occ. eigenvalues --   -0.42505  -0.41410  -0.40161  -0.39580  -0.39315
 Alpha  occ. eigenvalues --   -0.38698  -0.37676  -0.37126  -0.35048  -0.32517
 Alpha  occ. eigenvalues --   -0.31925
 Alpha virt. eigenvalues --    0.00447   0.01265   0.01322   0.01591   0.02664
 Alpha virt. eigenvalues --    0.02924   0.03106   0.03848   0.04197   0.04954
 Alpha virt. eigenvalues --    0.05030   0.05242   0.06043   0.06130   0.07575

 Mulliken charges:
               1
     1  C   -0.537097
     2  C   -0.321912
     3  C   -0.357145
     4  O   -0.369053
     5  O   -0.411284
     6  C   -0.197358
     7  O   -0.336250
     8  C   -0.281547
     9  C   -0.169233
    10  C   -0.241508
    11  C   -0.207077
    12  C   -0.117981
    13  C   -0.029195
    14  H    0.166905
    15  H    0.200407
    16  H    0.201436
    17  H    0.206003
    18  H    0.170409
    19  H    0.185235
    20  H    0.162517
    21  H    0.201266
    22  H    0.162802
    23  H    0.181448
    24  H    0.213776
    25  H    0.190261
    26  H    0.268732
    27  H    0.209936
    28  H    0.157494
    29  H    0.284767
    30  H    0.214600
    31  H    0.198645
 Sum of Mulliken charges =  -0.00000

 Dipole moment (field-independent basis, Debye):
    X=             -2.3413    Y=              4.3684    Z=              0.1208  Tot=              4.9577
 Quadrupole moment (field-independent basis, Debye-Ang):
   XX=            -67.3072   YY=            -82.3465   ZZ=            -82.1999
   XY=              5.7466   XZ=              3.3567   YZ=             -1.2105

  Exact polarizability: 187.752   3.683 171.283  -0.562   0.109 168.537
 Approx polarizability: 149.086   2.376 140.735  -0.830   0.696 142.759

                      1                      2                      3
                      A                      A                      A
 Frequencies --     51.1651                60.7605                85.8154
 Red. masses --      4.2094                 3.2724                 3.6100
 Frc consts  --      0.0065                 0.0071                 0.0157
 IR Inten    --      1.9496                 0.8009                 2.4748

                      4                      5                      6
                      A                      A                      A
 Frequencies --    145.2445               215.1121               246.0250
 Red. masses --      2.9302                 3.3728                 2.2025
 Frc consts  --      0.0364                 0.0920                 0.0785
 IR Inten    --      0.7946                 3.1101                 4.0468

                      7                      8                      9
                      A                      A                      A
 Frequencies --    256.0058               277.8082               337.1631
 Red. masses --      2.0998                 3.5863                 2.3926
 Frc consts  --      0.0811                 0.1631                 0.1603
 IR Inten    --     11.8833                 3.6969                 2.5169

                     10                     11                     12
                      A                      A                      A
 Frequencies --    361.2850               401.4147               427.4081
 Red. masses --      2.2017                 3.7449                 2.4992
 Frc consts  --      0.1693                 0.3555                 0.2690
 IR Inten    --     13.2958                 8.4763                 6.9356

                     13                     14                     15
                      A                      A                      A
 Frequencies --    448.5584               464.9434               479.9850
 Red. masses --      4.1389                 3.3383                 2.3761
 Frc consts  --      0.4906                 0.4252                 0.3225
 IR Inten    --      3.8360                 1.0776                 1.4463

                     16                     17                     18
                      A                      A                      A
 Frequencies --    504.1801               557.3935               596.8679
 Red. masses --      3.9581                 1.8742                 2.0736
 Frc consts  --      0.5928                 0.3431                 0.4353
 IR Inten    --      5.7867                 5.0550                19.9290

                     19                     20                     21
                      A                      A                      A
 Frequencies --    666.5772               827.3090               834.1157
 Red. masses --      3.6236                 2.1418                 1.8948
 Frc consts  --      0.9486                 0.8637                 0.7767
 IR Inten    --      7.6138                 5.3335                 5.2811

                     22                     23                     24
                      A                      A                      A
 Frequencies --    862.1141               873.6325               880.7754
 Red. masses --      1.6538                 1.4048                 2.2273
 Frc consts  --      0.7242                 0.6317                 1.0180
 IR Inten    --     19.1891                12.7526                 0.0756

                     25                     26                     27
                      A                      A                      A
 Frequencies --    900.0861               932.2087               945.1120
 Red. masses --      2.3738                 2.4017                 2.2475
 Frc consts  --      1.1331                 1.2297                 1.1828
 IR Inten    --     17.8396                20.5942                91.2664

                     28                     29                     30
                      A                      A                      A
 Frequencies --    964.9393               979.9468              1001.9783
 Red. masses --      1.8592                 2.3016                 1.4301
 Frc consts  --      1.0199                 1.3022                 0.8459
 IR Inten    --     18.6767                22.1033                 7.4308

                     31                     32                     33
                      A                      A                      A
 Frequencies --   1009.1287              1055.2154              1057.7412
 Red. masses --      2.1692                 1.8005                 1.6257
 Frc consts  --      1.3015                 1.1812                 1.0716
 IR Inten    --     37.4911                39.9844               104.9579

                     34                     35                     36
                      A                      A                      A
 Frequencies --   1068.5725              1088.2273              1118.6457
 Red. masses --      2.5228                 2.4626                 4.7428
 Frc consts  --      1.6972                 1.7182                 3.4968
 IR Inten    --     49.0985                42.4294               299.4657

                     37                     38                     39
                      A                      A                      A
 Frequencies --   1151.6314              1163.8392              1170.9598
 Red. masses --      2.3488                 2.4997                 2.2842
 Frc consts  --      1.8354                 1.9949                 1.8453
 IR Inten    --      4.6824               125.6154                 8.1198

                     40                     41                     42
                      A                      A                      A
 Frequencies --   1187.6341              1206.8104              1214.0394
 Red. masses --      2.2931                 1.6026                 1.5406
 Frc consts  --      1.9056                 1.3751                 1.3379
 IR Inten    --      3.6644                24.8163                36.4503

                     43                     44                     45
                      A                      A                      A
 Frequencies --   1234.4567              1249.3742              1254.4598
 Red. masses --      1.5654                 1.7334                 2.8627
 Frc consts  --      1.4055                 1.5941                 2.6542
 IR Inten    --     48.7603                17.8214               343.8015

                     46                     47                     48
                      A                      A                      A
 Frequencies --   1286.2088              1304.7545              1320.6722
 Red. masses --      1.2357                 1.2202                 1.2204
 Frc consts  --      1.2045                 1.2239                 1.2541
 IR Inten    --     13.5581                29.5868                29.5752

                     49                     50                     51
                      A                      A                      A
 Frequencies --   1331.6662              1343.6862              1355.1575
 Red. masses --      1.3001                 1.2555                 1.3200
 Frc consts  --      1.3583                 1.3356                 1.4282
 IR Inten    --     14.2678                 4.2969                16.8068

                     52                     53                     54
                      A                      A                      A
 Frequencies --   1363.7458              1369.0311              1382.9292
 Red. masses --      1.2238                 1.4479                 1.4383
 Frc consts  --      1.3410                 1.5989                 1.6207
 IR Inten    --     12.3715                13.8039                 8.2036

                     55                     56                     57
                      A                      A                      A
 Frequencies --   1385.4873              1396.5971              1403.0120
 Red. masses --      1.5143                 1.4031                 1.2856
 Frc consts  --      1.7126                 1.6124                 1.4910
 IR Inten    --      1.9752                26.5388                 0.7430

                     58                     59                     60
                      A                      A                      A
 Frequencies --   1414.5023              1423.9552              1437.4152
 Red. masses --      1.4051                 1.3268                 1.4529
 Frc consts  --      1.6564                 1.5851                 1.7687
 IR Inten    --     11.8932                16.9290                 3.7875

                     61                     62                     63
                      A                      A                      A
 Frequencies --   1443.4722              1470.0936              1472.6810
 Red. masses --      1.3893                 1.1136                 1.0988
 Frc consts  --      1.7056                 1.4180                 1.4040
 IR Inten    --     52.5874                 5.2645                 0.4243

                     64                     65                     66
                      A                      A                      A
 Frequencies --   1474.7010              1487.1952              1491.0081
 Red. masses --      1.1239                 1.1281                 1.1285
 Frc consts  --      1.4401                 1.4701                 1.4781
 IR Inten    --     19.5553                18.8462                21.3288

                     67                     68                     69
                      A                      A                      A
 Frequencies --   1497.3395              1505.2356              1505.7732
 Red. masses --      1.0840                 1.1032                 1.0968
 Frc consts  --      1.4320                 1.4726                 1.4653
 IR Inten    --      1.0016                 8.6398                 7.3931

                     70                     71                     72
                      A                      A                      A
 Frequencies --   3031.7161              3034.6714              3035.5741
 Red. masses --      1.0682                 1.0703                 1.0699
 Frc consts  --      5.7844                 5.8073                 5.8084
 IR Inten    --     54.0056                70.2296                78.5718

                     73                     74                     75
                      A                      A                      A
 Frequencies --   3049.6785              3061.1108              3061.5698
 Red. masses --      1.0847                 1.0684                 1.0681
 Frc consts  --      5.9439                 5.8986                 5.8985
 IR Inten    --     71.5460                24.0074                26.4380

                     76                     77                     78
                      A                      A                      A
 Frequencies --   3069.5142              3072.0261              3080.2928
 Red. masses --      1.0617                 1.0626                 1.0634
 Frc consts  --      5.8938                 5.9084                 5.9445
 IR Inten    --     45.7369                42.5036                31.7401

                     79                     80                     81
                      A                      A                      A
 Frequencies --   3089.7094              3119.8536              3122.9206
 Red. masses --      1.0793                 1.0981                 1.1004
 Frc consts  --      6.0704                 6.2973                 6.3228
 IR Inten    --     38.9119                42.6430                36.2620

                     82                     83                     84
                      A                      A                      A
 Frequencies --   3123.2416              3131.3425              3135.1965
 Red. masses --      1.1003                 1.1005                 1.1029
 Frc consts  --      6.3240                 6.3578                 6.3873
 IR Inten    --     59.1577                54.3152                46.7900

                     85                     86                     87
                      A                      A                      A
 Frequencies --   3136.6879              3140.5802              3140.7746
 Red. masses --      1.0973                 1.0959                 1.0967
 Frc consts  --      6.3609                 6.3684                 6.3742
 IR Inten    --     39.9566                33.8726                45.4356

 - Thermochemistry -
 -------------------
 Temperature   298.150 Kelvin.  Pressure   1.00000 Atm.
 Atom     1 has atomic number  6 and mass  12.00000

 Molecular mass:   186.12559 amu.
 Principal axes and moments of inertia in atomic units:
                           1         2         3
     Eigenvalues --   978.916664446.110324866.03395
           X            0.99998   0.00437   0.00521
           Y           -0.00431   0.99994  -0.01020
           Z           -0.00525   0.01018   0.99993
 This molecule is an asymmetric top.
 Rotational symmetry number  1.
 Warning -- assumption of classical behavior for rotation
           may cause significant error
 Rotational temperatures (Kelvin)      0.08848     0.01948     0.01780
 Rotational constants (GHZ):           1.84361     0.40591     0.37089
 Zero-point vibrational energy     737614.1 (Joules/Mol)
                                  176.29400 (Kcal/Mol)
 Warning -- explicit consideration of  18 degrees of freedom as
           vibrations may cause significant error
 Vibrational temperatures:     73.62    87.42   123.47   208.97   309.50
          (Kelvin)            353.98   368.34   399.70   485.10   519.81
                              577.55   614.94   645.38   668.95   690.59
                              725.40   801.96   858.76   959.06  1190.31
                             1200.11  1240.39  1256.96  1267.24  1295.02
                             1341.24  1359.81  1388.33  1409.92  1441.62
                             1451.91  1518.22  1521.85  1537.44  1565.72
                             1609.48  1656.94  1674.51  1684.75  1708.74
                             1736.33  1746.73  1776.11  1797.57  1804.89
                             1850.57  1877.25  1900.15  1915.97  1933.26
                             1949.77  1962.13  1969.73  1989.73  1993.41
                             2009.39  2018.62  2035.15  2048.75  2068.12
                             2076.83  2115.14  2118.86  2121.77  2139.74
                             2145.23  2154.34  2165.70  2166.47  4361.96
                             4366.22  4367.51  4387.81  4404.26  4404.92
                             4416.35  4419.96  4431.85  4445.40  4488.77
                             4493.19  4493.65  4505.30  4510.85  4512.99
                             4518.59  4518.87

 Zero-point correction=                           0.280942 (Hartree/Particle)
 Thermal correction to Energy=                    0.292641
 Thermal correction to Enthalpy=                  0.293585
 Thermal correction to Gibbs Free Energy=         0.242823
 Sum of electronic and zero-point Energies=           -617.224206
 Sum of electronic and thermal Energies=              -617.212507
 Sum of electronic and thermal Enthalpies=            -617.211563
 Sum of electronic and thermal Free Energies=         -617.262326

                     E (Thermal)             CV                S
                      KCal/Mol        Cal/Mol-Kelvin    Cal/Mol-Kelvin
 Total                  183.635             46.766            106.839
 Electronic               0.000              0.000              0.000
 Translational            0.889              2.981             41.570
 Rotational               0.889              2.981             31.427
 Vibrational            181.858             40.805             33.842
 Vibration     1          0.595              1.977              4.772
 Vibration     2          0.597              1.973              4.432
 Vibration     3          0.601              1.959              3.753
 Vibration     4          0.617              1.908              2.734
 Vibration     5          0.645              1.818              2.000
 Vibration     6          0.660              1.769              1.759
 Vibration     7          0.666              1.753              1.689
 Vibration     8          0.679              1.715              1.547
 Vibration     9          0.718              1.601              1.226
 Vibration    10          0.735              1.552              1.117
 Vibration    11          0.767              1.467              0.957
 Vibration    12          0.789              1.411              0.867
 Vibration    13          0.808              1.364              0.800
 Vibration    14          0.822              1.328              0.752
 Vibration    15          0.836              1.294              0.710
 Vibration    16          0.859              1.241              0.648
 Vibration    17          0.913              1.124              0.529
 Vibration    18          0.955              1.038              0.455

 Optimization completed.
    -- Stationary point found.
 Normal termination of Gaussian 16 at Sun Mar 10 08:27:32 2019.
