 Gaussian 16, Revision B.01,
 Gaussian 16:  ES64L-G16RevB.01 20-Dec-2017

 ----------------------------------------------------------------------
 #M062X/6-311++G(2d,2p) opt=ModRedundant freq=noraman SCRF=(SMD,solvent
 =water)
 ----------------------------------------------------------------------

 --------------------------------
 4c1_b1_4e_4c1_PHI.inp_extract_16
 --------------------------------
 Symbolic Z-matrix:
 Charge =  0 Multiplicity = 1

 SCF Done:  E(RM062X) =  -617.500483831     A.U. after   12 cycles
 SCF Done:  E(RM062X) =  -617.502060479     A.U. after   10 cycles
 SCF Done:  E(RM062X) =  -617.502300520     A.U. after   10 cycles
 SCF Done:  E(RM062X) =  -617.502391557     A.U. after    9 cycles
 SCF Done:  E(RM062X) =  -617.502398806     A.U. after    8 cycles
 SCF Done:  E(RM062X) =  -617.502399368     A.U. after    7 cycles
 Optimization completed.
    -- Stationary point found.
 Normal termination of Gaussian 16 at Sun Mar 10 08:21:53 2019.

 ----------------------------------------------------------------------
 #N Geom=AllCheck Guess=TCheck SCRF=Check GenChk RM062X/6-311++G(2d,2p)
  Freq
 ----------------------------------------------------------------------

 Structure from the checkpoint file:  "4c1_b1_4e_4c1_PHI.inp_extract_16.chk"
 --------------------------------
 4c1_b1_4e_4c1_PHI.inp_extract_16
 --------------------------------
 Charge =  0 Multiplicity = 1

                         Standard orientation:
 ---------------------------------------------------------------------
 Center     Atomic      Atomic             Coordinates (Angstroms)
 Number     Number       Type             X           Y           Z
 ---------------------------------------------------------------------
      1          6           0       -2.885114    1.433979   -0.419260
      2          6           0        2.181795   -1.265475   -0.428916
      3          6           0        3.000179    1.349268    0.386015
      4          8           0        3.382345   -0.675928   -0.900733
      5          8           0       -2.192784   -1.240127    0.266652
      6          6           0       -3.521145   -0.776960    0.520148
      7          8           0       -0.010911   -0.909250    0.319483
      8          6           0       -3.909431    0.304738   -0.470049
      9          6           0        1.659092    0.796244    0.867296
     10          6           0       -1.233292   -0.212551    0.430825
     11          6           0        3.949004    0.208646    0.066506
     12          6           0        1.128779   -0.201008   -0.154051
     13          6           0       -1.468746    0.881789   -0.596719
     14          1           0       -3.089484    2.179656   -1.186304
     15          1           0       -2.952322    1.938523    0.548351
     16          1           0        2.377179   -1.828757    0.491041
     17          1           0        1.835574   -1.952245   -1.198868
     18          1           0        2.854532    1.952657   -0.512712
     19          1           0        3.447981    1.989643    1.145937
     20          1           0       -3.577278   -0.394727    1.545082
     21          1           0       -4.162671   -1.651413    0.441064
     22          1           0       -3.939691   -0.126511   -1.473087
     23          1           0       -4.908914    0.669719   -0.232248
     24          1           0        1.795061    0.268212    1.815395
     25          1           0        0.942454    1.600853    1.033537
     26          1           0       -1.328624    0.197030    1.445650
     27          1           0        4.880150    0.571489   -0.363237
     28          1           0        4.179050   -0.359689    0.974699
     29          1           0        0.901925    0.303957   -1.095129
     30          1           0       -1.351003    0.449944   -1.593465
     31          1           0       -0.739841    1.682086   -0.479704
 ---------------------------------------------------------------------

 SCF Done:  E(RM062X) =  -617.502399368     A.U. after    1 cycles

 The electronic state is 1-A.
 Alpha  occ. eigenvalues --  -19.63500 -19.63215 -19.63158 -10.63604 -10.58421
 Alpha  occ. eigenvalues --  -10.57602 -10.57539 -10.57418 -10.52631 -10.52574
 Alpha  occ. eigenvalues --  -10.52568 -10.52479 -10.52241  -1.20028  -1.16423
 Alpha  occ. eigenvalues --   -1.13734  -0.89953  -0.89829  -0.87028  -0.83876
 Alpha  occ. eigenvalues --   -0.74639  -0.73928  -0.72443  -0.69194  -0.66108
 Alpha  occ. eigenvalues --   -0.64096  -0.59993  -0.57651  -0.56832  -0.55486
 Alpha  occ. eigenvalues --   -0.53552  -0.52966  -0.51536  -0.50287  -0.50015
 Alpha  occ. eigenvalues --   -0.49306  -0.46929  -0.45524  -0.45480  -0.44284
 Alpha  occ. eigenvalues --   -0.43140  -0.41112  -0.40318  -0.39735  -0.39171
 Alpha  occ. eigenvalues --   -0.38919  -0.37290  -0.37244  -0.34788  -0.32745
 Alpha  occ. eigenvalues --   -0.31734
 Alpha virt. eigenvalues --    0.00510   0.01270   0.01350   0.01636   0.02597
 Alpha virt. eigenvalues --    0.02918   0.03071   0.04152   0.04268   0.04809
 Alpha virt. eigenvalues --    0.04997   0.05290   0.06049   0.06297   0.07297

 Mulliken charges:
               1
     1  C   -0.522122
     2  C   -0.237504
     3  C   -0.377231
     4  O   -0.376293
     5  O   -0.406750
     6  C   -0.093252
     7  O   -0.441265
     8  C   -0.335723
     9  C   -0.181966
    10  C   -0.007967
    11  C   -0.240934
    12  C   -0.195227
    13  C   -0.224178
    14  H    0.171965
    15  H    0.194820
    16  H    0.202820
    17  H    0.214463
    18  H    0.170911
    19  H    0.179958
    20  H    0.142237
    21  H    0.220350
    22  H    0.162889
    23  H    0.184966
    24  H    0.227072
    25  H    0.187607
    26  H    0.290125
    27  H    0.214517
    28  H    0.158974
    29  H    0.303533
    30  H    0.232284
    31  H    0.180924
 Sum of Mulliken charges =  -0.00000

 Dipole moment (field-independent basis, Debye):
    X=             -1.6119    Y=              5.0980    Z=              1.6543  Tot=              5.5968
 Quadrupole moment (field-independent basis, Debye-Ang):
   XX=            -71.3280   YY=            -83.6202   ZZ=            -80.4048
   XY=              0.4228   XZ=              6.1202   YZ=              0.0719

  Exact polarizability: 189.570   3.165 171.374  -1.150   0.546 166.574
 Approx polarizability: 149.382   2.206 142.319  -1.147   0.725 140.742

                      1                      2                      3
                      A                      A                      A
 Frequencies --      9.8166                62.2005                85.2848
 Red. masses --      3.8855                 3.4804                 3.6423
 Frc consts  --      0.0002                 0.0079                 0.0156
 IR Inten    --      0.8479                 1.1847                 1.0150

                      4                      5                      6
                      A                      A                      A
 Frequencies --    159.0712               195.2665               247.7589
 Red. masses --      3.1281                 3.1742                 2.0637
 Frc consts  --      0.0466                 0.0713                 0.0746
 IR Inten    --      0.8780                 2.9118                 2.4914

                      7                      8                      9
                      A                      A                      A
 Frequencies --    261.9648               272.7716               308.1782
 Red. masses --      2.1179                 4.7293                 4.2686
 Frc consts  --      0.0856                 0.2073                 0.2389
 IR Inten    --     11.4459                 0.5236                10.9898

                     10                     11                     12
                      A                      A                      A
 Frequencies --    351.6042               374.5547               433.3641
 Red. masses --      1.8713                 2.3366                 3.0531
 Frc consts  --      0.1363                 0.1931                 0.3378
 IR Inten    --      3.3532                14.4049                 7.5946

                     13                     14                     15
                      A                      A                      A
 Frequencies --    455.7604               471.0064               482.8750
 Red. masses --      3.8413                 3.1101                 2.3346
 Frc consts  --      0.4701                 0.4065                 0.3207
 IR Inten    --      3.3370                 1.2816                 2.8320

                     16                     17                     18
                      A                      A                      A
 Frequencies --    520.9860               549.9381               596.1488
 Red. masses --      3.1532                 1.9593                 2.3058
 Frc consts  --      0.5043                 0.3491                 0.4828
 IR Inten    --      1.1502                20.2535                 8.4135

                     19                     20                     21
                      A                      A                      A
 Frequencies --    658.0661               827.6777               843.7933
 Red. masses --      3.0388                 2.1970                 1.9701
 Frc consts  --      0.7753                 0.8867                 0.8265
 IR Inten    --     11.2468                 0.5973                 3.4945

                     22                     23                     24
                      A                      A                      A
 Frequencies --    855.9408               877.5036               882.9170
 Red. masses --      1.5488                 1.4296                 2.2325
 Frc consts  --      0.6685                 0.6486                 1.0254
 IR Inten    --     16.7510                18.5395                 1.4802

                     25                     26                     27
                      A                      A                      A
 Frequencies --    900.6621               942.0097               945.6062
 Red. masses --      2.3930                 2.2562                 2.2758
 Frc consts  --      1.1437                 1.1796                 1.1989
 IR Inten    --     17.3005                35.4821                45.5895

                     28                     29                     30
                      A                      A                      A
 Frequencies --    962.0436               988.0565              1004.3468
 Red. masses --      1.8897                 2.1129                 1.4562
 Frc consts  --      1.0305                 1.2153                 0.8654
 IR Inten    --      6.7709                14.4043                 9.1506

                     31                     32                     33
                      A                      A                      A
 Frequencies --   1008.8437              1058.2260              1071.7489
 Red. masses --      2.1115                 1.6954                 1.6408
 Frc consts  --      1.2662                 1.1186                 1.1104
 IR Inten    --     31.0630                17.1310                48.9974

                     34                     35                     36
                      A                      A                      A
 Frequencies --   1082.0957              1117.8502              1150.2235
 Red. masses --      2.5770                 3.0463                 2.4745
 Frc consts  --      1.7779                 2.2428                 1.9289
 IR Inten    --     66.8723                70.9995                21.8824

                     37                     38                     39
                      A                      A                      A
 Frequencies --   1162.9573              1165.0088              1173.2812
 Red. masses --      2.3712                 2.3153                 2.3162
 Frc consts  --      1.8895                 1.8515                 1.8786
 IR Inten    --    196.9988                66.5309                40.6012

                     40                     41                     42
                      A                      A                      A
 Frequencies --   1185.7049              1201.3909              1211.4884
 Red. masses --      2.4969                 1.4531                 1.5296
 Frc consts  --      2.0682                 1.2357                 1.3227
 IR Inten    --      3.0680                21.8309                29.9211

                     43                     44                     45
                      A                      A                      A
 Frequencies --   1247.5213              1254.8487              1260.0539
 Red. masses --      1.7062                 1.7792                 3.0531
 Frc consts  --      1.5645                 1.6506                 2.8561
 IR Inten    --     22.0351               254.5525               258.9197

                     46                     47                     48
                      A                      A                      A
 Frequencies --   1284.9172              1303.4537              1325.1472
 Red. masses --      1.2304                 1.1810                 1.3765
 Frc consts  --      1.1969                 1.1822                 1.4242
 IR Inten    --     10.7928                24.4874                33.8344

                     49                     50                     51
                      A                      A                      A
 Frequencies --   1332.5136              1344.5040              1351.5855
 Red. masses --      1.3009                 1.2529                 1.2923
 Frc consts  --      1.3610                 1.3344                 1.3909
 IR Inten    --     14.9407                 3.2793                 1.4442

                     52                     53                     54
                      A                      A                      A
 Frequencies --   1362.2390              1367.2140              1380.0349
 Red. masses --      1.2570                 1.3137                 1.4199
 Frc consts  --      1.3743                 1.4468                 1.5933
 IR Inten    --     16.0022                 3.7659                17.6769

                     55                     56                     57
                      A                      A                      A
 Frequencies --   1388.8102              1393.8930              1398.5854
 Red. masses --      1.5112                 1.3643                 1.4687
 Frc consts  --      1.7173                 1.5618                 1.6926
 IR Inten    --      4.4372                61.8028                18.9842

                     58                     59                     60
                      A                      A                      A
 Frequencies --   1414.6203              1423.9343              1435.1082
 Red. masses --      1.3908                 1.4059                 1.5466
 Frc consts  --      1.6398                 1.6796                 1.8767
 IR Inten    --     13.4497                19.8260                55.6963

                     61                     62                     63
                      A                      A                      A
 Frequencies --   1440.1591              1469.8043              1470.5656
 Red. masses --      1.5296                 1.0975                 1.1001
 Frc consts  --      1.8692                 1.3970                 1.4017
 IR Inten    --      7.3614                10.5745                 5.0656

                     64                     65                     66
                      A                      A                      A
 Frequencies --   1475.3495              1488.5867              1490.0529
 Red. masses --      1.1074                 1.1293                 1.1296
 Frc consts  --      1.4202                 1.4744                 1.4777
 IR Inten    --      7.2374                11.9173                23.4562

                     67                     68                     69
                      A                      A                      A
 Frequencies --   1498.3022              1504.3675              1506.5904
 Red. masses --      1.0862                 1.1020                 1.1034
 Frc consts  --      1.4367                 1.4694                 1.4756
 IR Inten    --      0.9518                 9.1388                 9.4190

                     70                     71                     72
                      A                      A                      A
 Frequencies --   3009.9010              3034.7667              3036.3964
 Red. masses --      1.0831                 1.0682                 1.0697
 Frc consts  --      5.7810                 5.7963                 5.8110
 IR Inten    --     85.9085                42.8173                86.9257

                     73                     74                     75
                      A                      A                      A
 Frequencies --   3041.9185              3059.5589              3061.2006
 Red. masses --      1.0699                 1.0657                 1.0686
 Frc consts  --      5.8332                 5.8774                 5.9000
 IR Inten    --     73.1154                25.7651                23.1285

                     76                     77                     78
                      A                      A                      A
 Frequencies --   3070.1068              3071.9955              3074.3409
 Red. masses --      1.0619                 1.0628                 1.0637
 Frc consts  --      5.8970                 5.9097                 5.9236
 IR Inten    --     42.7300                35.8449                34.5862

                     79                     80                     81
                      A                      A                      A
 Frequencies --   3088.9039              3117.5978              3119.7531
 Red. masses --      1.0817                 1.0988                 1.0970
 Frc consts  --      6.0809                 6.2925                 6.2905
 IR Inten    --     60.4413                32.7645                42.7280

                     82                     83                     84
                      A                      A                      A
 Frequencies --   3123.0253              3123.9298              3138.8858
 Red. masses --      1.1022                 1.1024                 1.0977
 Frc consts  --      6.3336                 6.3384                 6.3723
 IR Inten    --     58.5554                62.8635                77.7212

                     85                     86                     87
                      A                      A                      A
 Frequencies --   3139.3514              3140.9321              3143.9366
 Red. masses --      1.0988                 1.0974                 1.0964
 Frc consts  --      6.3803                 6.3786                 6.3852
 IR Inten    --      8.6922                37.5890                37.1645

 - Thermochemistry -
 -------------------
 Temperature   298.150 Kelvin.  Pressure   1.00000 Atm.
 Atom     1 has atomic number  6 and mass  12.00000

 Molecular mass:   186.12559 amu.
 Principal axes and moments of inertia in atomic units:
                           1         2         3
     Eigenvalues --   841.671654893.842865271.43647
           X            0.99997  -0.00098   0.00734
           Y            0.00099   1.00000  -0.00051
           Z           -0.00734   0.00051   0.99997
 This molecule is an asymmetric top.
 Rotational symmetry number  1.
 Warning -- assumption of classical behavior for rotation
           may cause significant error
 Rotational temperatures (Kelvin)      0.10291     0.01770     0.01643
 Rotational constants (GHZ):           2.14423     0.36878     0.34236
 Zero-point vibrational energy     737648.9 (Joules/Mol)
                                  176.30231 (Kcal/Mol)
 Warning -- explicit consideration of  18 degrees of freedom as
           vibrations may cause significant error
 Vibrational temperatures:     14.12    89.49   122.71   228.87   280.94
          (Kelvin)            356.47   376.91   392.46   443.40   505.88
                              538.90   623.51   655.74   677.67   694.75
                              749.58   791.24   857.73   946.81  1190.84
                             1214.03  1231.51  1262.53  1270.32  1295.85
                             1355.34  1360.52  1384.17  1421.59  1445.03
                             1451.50  1522.55  1542.01  1556.89  1608.34
                             1654.92  1673.24  1676.19  1688.09  1705.96
                             1728.53  1743.06  1794.90  1805.45  1812.94
                             1848.71  1875.38  1906.59  1917.19  1934.44
                             1944.63  1959.96  1967.12  1985.56  1998.19
                             2005.50  2012.25  2035.32  2048.72  2064.80
                             2072.07  2114.72  2115.82  2122.70  2141.74
                             2143.85  2155.72  2164.45  2167.65  4330.58
                             4366.35  4368.70  4376.64  4402.02  4404.38
                             4417.20  4419.92  4423.29  4444.24  4485.53
                             4488.63  4493.34  4494.64  4516.16  4516.83
                             4519.10  4523.42

 Zero-point correction=                           0.280956 (Hartree/Particle)
 Thermal correction to Energy=                    0.292780
 Thermal correction to Enthalpy=                  0.293724
 Thermal correction to Gibbs Free Energy=         0.241334
 Sum of electronic and zero-point Energies=           -617.221444
 Sum of electronic and thermal Energies=              -617.209620
 Sum of electronic and thermal Enthalpies=            -617.208676
 Sum of electronic and thermal Free Energies=         -617.261065

                     E (Thermal)             CV                S
                      KCal/Mol        Cal/Mol-Kelvin    Cal/Mol-Kelvin
 Total                  183.722             46.740            110.262
 Electronic               0.000              0.000              0.000
 Translational            0.889              2.981             41.570
 Rotational               0.889              2.981             31.452
 Vibrational            181.944             40.779             37.241
 Vibration     1          0.593              1.987              8.048
 Vibration     2          0.597              1.972              4.386
 Vibration     3          0.601              1.959              3.765
 Vibration     4          0.621              1.892              2.561
 Vibration     5          0.636              1.846              2.177
 Vibration     6          0.661              1.766              1.746
 Vibration     7          0.669              1.742              1.649
 Vibration     8          0.676              1.724              1.579
 Vibration     9          0.698              1.658              1.372
 Vibration    10          0.728              1.572              1.159
 Vibration    11          0.746              1.524              1.061
 Vibration    12          0.794              1.398              0.848
 Vibration    13          0.814              1.348              0.779
 Vibration    14          0.828              1.314              0.735
 Vibration    15          0.839              1.288              0.702
 Vibration    16          0.876              1.204              0.608
 Vibration    17          0.905              1.140              0.544
 Vibration    18          0.954              1.040              0.456

 Optimization completed.
    -- Stationary point found.
 Normal termination of Gaussian 16 at Sun Mar 10 09:24:28 2019.
