 Gaussian 16, Revision B.01,
 Gaussian 16:  ES64L-G16RevB.01 20-Dec-2017

 ----------------------------------------------------------------------
 #M062X/6-311++G(2d,2p) opt=ModRedundant freq=noraman SCRF=(SMD,solvent
 =water)
 ----------------------------------------------------------------------

 -------------------------------
 4c1_b1_4e_4c1_PHI.inp_extract_2
 -------------------------------
 Symbolic Z-matrix:
 Charge =  0 Multiplicity = 1

 SCF Done:  E(RM062X) =  -617.505481728     A.U. after   12 cycles
 SCF Done:  E(RM062X) =  -617.507064418     A.U. after   10 cycles
 SCF Done:  E(RM062X) =  -617.507189092     A.U. after    9 cycles
 SCF Done:  E(RM062X) =  -617.507219494     A.U. after    9 cycles
 SCF Done:  E(RM062X) =  -617.507229599     A.U. after    8 cycles
 SCF Done:  E(RM062X) =  -617.507232918     A.U. after    8 cycles
 SCF Done:  E(RM062X) =  -617.507233173     A.U. after    6 cycles
 Optimization completed.
    -- Stationary point found.
 Normal termination of Gaussian 16 at Sun Mar 10 05:55:44 2019.

 ----------------------------------------------------------------------
 #N Geom=AllCheck Guess=TCheck SCRF=Check GenChk RM062X/6-311++G(2d,2p)
  Freq
 ----------------------------------------------------------------------

 Structure from the checkpoint file:  "4c1_b1_4e_4c1_PHI.inp_extract_2.chk"
 -------------------------------
 4c1_b1_4e_4c1_PHI.inp_extract_2
 -------------------------------
 Charge =  0 Multiplicity = 1

                         Standard orientation:
 ---------------------------------------------------------------------
 Center     Atomic      Atomic             Coordinates (Angstroms)
 Number     Number       Type             X           Y           Z
 ---------------------------------------------------------------------
      1          6           0       -3.706680   -0.795864    0.001581
      2          6           0        2.154897   -1.282963   -0.320688
      3          6           0        3.027927    1.371592    0.275267
      4          8           0        3.354890   -0.751411   -0.860352
      5          8           0       -1.405362    0.917559   -0.063438
      6          6           0       -2.612204    1.327181   -0.712596
      7          8           0       -0.024194   -0.815553    0.487108
      8          6           0       -3.827255    0.726191   -0.028846
      9          6           0        1.689683    0.881835    0.828489
     10          6           0       -1.243277   -0.491237   -0.117158
     11          6           0        3.953433    0.194931    0.025546
     12          6           0        1.123202   -0.186977   -0.090856
     13          6           0       -2.363307   -1.202556    0.607478
     14          1           0       -4.523954   -1.239399    0.568460
     15          1           0       -3.772377   -1.182196   -1.018874
     16          1           0        2.363400   -1.786365    0.630977
     17          1           0        1.777994   -2.015068   -1.032665
     18          1           0        2.870854    1.904835   -0.664984
     19          1           0        3.502369    2.062423    0.972300
     20          1           0       -2.574391    1.017000   -1.762776
     21          1           0       -2.620650    2.413943   -0.673298
     22          1           0       -3.888723    1.115898    0.989754
     23          1           0       -4.727153    1.037017   -0.560226
     24          1           0        1.841389    0.434446    1.814822
     25          1           0        0.981410    1.702053    0.936565
     26          1           0       -1.218927   -0.781013   -1.178015
     27          1           0        4.880829    0.509349   -0.448359
     28          1           0        4.193645   -0.306522    0.969873
     29          1           0        0.855206    0.250361   -1.055930
     30          1           0       -2.317059   -0.915987    1.660618
     31          1           0       -2.205049   -2.278341    0.535905
 ---------------------------------------------------------------------

 SCF Done:  E(RM062X) =  -617.507233173     A.U. after    1 cycles

 The electronic state is 1-A.
 Alpha  occ. eigenvalues --  -19.63725 -19.63101 -19.63068 -10.63394 -10.58286
 Alpha  occ. eigenvalues --  -10.57557 -10.57476 -10.57388 -10.52583 -10.52499
 Alpha  occ. eigenvalues --  -10.52499 -10.52371 -10.52271  -1.20179  -1.16328
 Alpha  occ. eigenvalues --   -1.13684  -0.90667  -0.89395  -0.86854  -0.83592
 Alpha  occ. eigenvalues --   -0.74300  -0.73682  -0.72252  -0.69687  -0.66004
 Alpha  occ. eigenvalues --   -0.64324  -0.59848  -0.57831  -0.56963  -0.55157
 Alpha  occ. eigenvalues --   -0.54482  -0.52439  -0.51493  -0.50660  -0.50017
 Alpha  occ. eigenvalues --   -0.47919  -0.46393  -0.45824  -0.45351  -0.44143
 Alpha  occ. eigenvalues --   -0.43066  -0.40460  -0.40199  -0.39786  -0.39440
 Alpha  occ. eigenvalues --   -0.39005  -0.37795  -0.37087  -0.35272  -0.32758
 Alpha  occ. eigenvalues --   -0.31765
 Alpha virt. eigenvalues --    0.00516   0.01302   0.01312   0.01465   0.02599
 Alpha virt. eigenvalues --    0.02879   0.03055   0.04020   0.04177   0.04686
 Alpha virt. eigenvalues --    0.04879   0.05271   0.05961   0.06119   0.07197

 Mulliken charges:
               1
     1  C   -0.431960
     2  C   -0.288138
     3  C   -0.343502
     4  O   -0.378171
     5  O   -0.397844
     6  C   -0.193677
     7  O   -0.357893
     8  C   -0.300939
     9  C   -0.310389
    10  C   -0.109333
    11  C   -0.186111
    12  C    0.019523
    13  C   -0.204759
    14  H    0.201589
    15  H    0.176921
    16  H    0.202761
    17  H    0.204209
    18  H    0.165648
    19  H    0.184766
    20  H    0.160511
    21  H    0.200781
    22  H    0.158847
    23  H    0.179512
    24  H    0.205690
    25  H    0.187538
    26  H    0.250000
    27  H    0.214791
    28  H    0.153292
    29  H    0.256660
    30  H    0.195105
    31  H    0.184572
 Sum of Mulliken charges =  -0.00000

 Dipole moment (field-independent basis, Debye):
    X=             -2.6515    Y=              0.9280    Z=             -0.4448  Tot=              2.8442
 Quadrupole moment (field-independent basis, Debye-Ang):
   XX=            -70.2607   YY=            -79.2719   ZZ=            -81.1966
   XY=              5.1669   XZ=              9.2332   YZ=             -0.8938

  Exact polarizability: 186.162   1.200 173.944   1.872  -1.054 168.367
 Approx polarizability: 147.036   0.860 143.102   1.578  -0.654 142.434

                      1                      2                      3
                      A                      A                      A
 Frequencies --     43.1711                60.1045                75.7220
 Red. masses --      3.9645                 3.5091                 3.7584
 Frc consts  --      0.0044                 0.0075                 0.0127
 IR Inten    --      3.8766                 2.4480                 1.3806

                      4                      5                      6
                      A                      A                      A
 Frequencies --    148.4327               204.2215               246.3137
 Red. masses --      3.0210                 3.1281                 2.4045
 Frc consts  --      0.0392                 0.0769                 0.0859
 IR Inten    --      1.2247                 0.3555                 4.5440

                      7                      8                      9
                      A                      A                      A
 Frequencies --    249.1367               277.8668               315.1022
 Red. masses --      2.1084                 3.3370                 3.4640
 Frc consts  --      0.0771                 0.1518                 0.2026
 IR Inten    --      8.4231                 1.2459                21.2637

                     10                     11                     12
                      A                      A                      A
 Frequencies --    355.9392               386.7083               435.3836
 Red. masses --      2.0112                 2.4417                 2.9096
 Frc consts  --      0.1501                 0.2151                 0.3250
 IR Inten    --      4.8457                 6.0839                 9.2278

                     13                     14                     15
                      A                      A                      A
 Frequencies --    445.5515               465.8361               499.0051
 Red. masses --      3.6038                 3.1655                 2.7516
 Frc consts  --      0.4215                 0.4047                 0.4037
 IR Inten    --      2.8480                 1.5150                 1.8055

                     16                     17                     18
                      A                      A                      A
 Frequencies --    518.8741               546.3702               603.6676
 Red. masses --      2.9428                 2.1071                 2.2842
 Frc consts  --      0.4668                 0.3706                 0.4904
 IR Inten    --      3.9265                15.3934                11.8020

                     19                     20                     21
                      A                      A                      A
 Frequencies --    647.0099               832.4502               834.0469
 Red. masses --      2.9891                 2.1567                 1.8260
 Frc consts  --      0.7372                 0.8805                 0.7484
 IR Inten    --      0.7007                 5.2526                 3.0469

                     22                     23                     24
                      A                      A                      A
 Frequencies --    860.9386               876.9063               883.2254
 Red. masses --      1.8586                 1.3989                 1.9460
 Frc consts  --      0.8117                 0.6338                 0.8944
 IR Inten    --     14.3037                14.1151                 8.8567

                     25                     26                     27
                      A                      A                      A
 Frequencies --    900.0253               936.4288               942.5262
 Red. masses --      2.3466                 2.3129                 2.2586
 Frc consts  --      1.1200                 1.1950                 1.1821
 IR Inten    --     15.6643                49.4657                56.7006

                     28                     29                     30
                      A                      A                      A
 Frequencies --    960.4169               984.4152               996.9078
 Red. masses --      2.0685                 2.0631                 1.3780
 Frc consts  --      1.1241                 1.1779                 0.8069
 IR Inten    --     10.7749                51.8274                 0.6744

                     31                     32                     33
                      A                      A                      A
 Frequencies --   1009.8744              1054.6684              1059.3972
 Red. masses --      2.1681                 1.6963                 1.5339
 Frc consts  --      1.3028                 1.1117                 1.0143
 IR Inten    --     12.9741                23.5263                71.8785

                     34                     35                     36
                      A                      A                      A
 Frequencies --   1089.6546              1101.3617              1128.2696
 Red. masses --      3.0433                 2.9918                 3.6796
 Frc consts  --      2.1290                 2.1382                 2.7598
 IR Inten    --     31.5091               153.9690               217.7772

                     37                     38                     39
                      A                      A                      A
 Frequencies --   1154.2600              1160.0033              1169.5192
 Red. masses --      2.2652                 2.8329                 2.3840
 Frc consts  --      1.7781                 2.2459                 1.9212
 IR Inten    --     11.4641               125.7068                38.1955

                     40                     41                     42
                      A                      A                      A
 Frequencies --   1183.3466              1204.3667              1211.1882
 Red. masses --      2.2037                 1.5200                 1.5609
 Frc consts  --      1.8182                 1.2990                 1.3492
 IR Inten    --     10.0204                16.7158               105.4473

                     43                     44                     45
                      A                      A                      A
 Frequencies --   1233.6963              1242.3496              1250.0176
 Red. masses --      2.6705                 1.6732                 1.7487
 Frc consts  --      2.3948                 1.5215                 1.6099
 IR Inten    --    123.7785                61.6112               151.0921

                     46                     47                     48
                      A                      A                      A
 Frequencies --   1279.9132              1304.4602              1314.8478
 Red. masses --      1.2289                 1.2039                 1.1941
 Frc consts  --      1.1861                 1.2070                 1.2163
 IR Inten    --      6.5438                27.3329                34.3328

                     49                     50                     51
                      A                      A                      A
 Frequencies --   1330.5314              1341.4680              1344.9569
 Red. masses --      1.3216                 1.2697                 1.2733
 Frc consts  --      1.3785                 1.3462                 1.3570
 IR Inten    --     10.0098                 3.0064                 7.0430

                     52                     53                     54
                      A                      A                      A
 Frequencies --   1363.4627              1368.9753              1381.8632
 Red. masses --      1.2699                 1.4411                 1.4436
 Frc consts  --      1.3910                 1.5912                 1.6242
 IR Inten    --     18.1760                 6.9070                 6.0344

                     55                     56                     57
                      A                      A                      A
 Frequencies --   1386.6760              1392.3639              1403.1797
 Red. masses --      1.5088                 1.4929                 1.2598
 Frc consts  --      1.7093                 1.7053                 1.4614
 IR Inten    --      2.5910                33.7168                20.4299

                     58                     59                     60
                      A                      A                      A
 Frequencies --   1413.1472              1423.5789              1429.7483
 Red. masses --      1.4340                 1.3163                 1.4890
 Frc consts  --      1.6872                 1.5717                 1.7934
 IR Inten    --     35.5099                 7.1260                41.5132

                     61                     62                     63
                      A                      A                      A
 Frequencies --   1447.4832              1470.8485              1472.7658
 Red. masses --      1.4697                 1.1225                 1.0954
 Frc consts  --      1.8143                 1.4308                 1.3998
 IR Inten    --     15.2436                 3.5991                 5.7891

                     64                     65                     66
                      A                      A                      A
 Frequencies --   1473.0047              1488.4225              1489.6238
 Red. masses --      1.1026                 1.1215                 1.1366
 Frc consts  --      1.4095                 1.4639                 1.4860
 IR Inten    --     14.6084                19.8304                21.8717

                     67                     68                     69
                      A                      A                      A
 Frequencies --   1497.7295              1504.9428              1505.3737
 Red. masses --      1.0869                 1.0959                 1.1034
 Frc consts  --      1.4366                 1.4624                 1.4732
 IR Inten    --      1.3597                 3.8059                11.2244

                     70                     71                     72
                      A                      A                      A
 Frequencies --   2999.3241              3032.4978              3036.8097
 Red. masses --      1.0823                 1.0681                 1.0696
 Frc consts  --      5.7363                 5.7873                 5.8117
 IR Inten    --     95.5800                51.5124                82.1745

                     73                     74                     75
                      A                      A                      A
 Frequencies --   3038.8885              3060.0343              3062.8833
 Red. masses --      1.0699                 1.0685                 1.0685
 Frc consts  --      5.8215                 5.8948                 5.9060
 IR Inten    --     69.6638                11.8665                22.2970

                     76                     77                     78
                      A                      A                      A
 Frequencies --   3070.2572              3071.2348              3073.9424
 Red. masses --      1.0615                 1.0631                 1.0615
 Frc consts  --      5.8953                 5.9080                 5.9097
 IR Inten    --     42.1991                26.5966                50.2963

                     79                     80                     81
                      A                      A                      A
 Frequencies --   3077.6927              3119.3043              3121.3816
 Red. masses --      1.0811                 1.0983                 1.1004
 Frc consts  --      6.0335                 6.2963                 6.3170
 IR Inten    --     68.8398                41.1175                44.7346

                     82                     83                     84
                      A                      A                      A
 Frequencies --   3123.1027              3129.8441              3131.1300
 Red. masses --      1.1007                 1.0995                 1.1035
 Frc consts  --      6.3256                 6.3457                 6.3744
 IR Inten    --     58.4970                41.8483                50.4501

                     85                     86                     87
                      A                      A                      A
 Frequencies --   3135.6754              3139.3615              3142.8754
 Red. masses --      1.0973                 1.0970                 1.0962
 Frc consts  --      6.3566                 6.3699                 6.3793
 IR Inten    --     40.9937                42.4675                39.3205

 - Thermochemistry -
 -------------------
 Temperature   298.150 Kelvin.  Pressure   1.00000 Atm.
 Atom     1 has atomic number  6 and mass  12.00000

 Molecular mass:   186.12559 amu.
 Principal axes and moments of inertia in atomic units:
                           1         2         3
     Eigenvalues --   840.914954834.592565269.18220
           X            0.99994   0.00776   0.00726
           Y           -0.00771   0.99995  -0.00701
           Z           -0.00732   0.00696   0.99995
 This molecule is an asymmetric top.
 Rotational symmetry number  1.
 Warning -- assumption of classical behavior for rotation
           may cause significant error
 Rotational temperatures (Kelvin)      0.10300     0.01792     0.01644
 Rotational constants (GHZ):           2.14616     0.37330     0.34251
 Zero-point vibrational energy     736781.7 (Joules/Mol)
                                  176.09506 (Kcal/Mol)
 Warning -- explicit consideration of  18 degrees of freedom as
           vibrations may cause significant error
 Vibrational temperatures:     62.11    86.48   108.95   213.56   293.83
          (Kelvin)            354.39   358.45   399.79   453.36   512.12
                              556.39   626.42   641.05   670.23   717.96
                              746.54   786.10   868.54   930.90  1197.71
                             1200.01  1238.70  1261.67  1270.76  1294.94
                             1347.31  1356.08  1381.83  1416.35  1434.33
                             1452.98  1517.43  1524.24  1567.77  1584.61
                             1623.33  1660.72  1668.99  1682.68  1702.57
                             1732.82  1742.63  1775.01  1787.46  1798.50
                             1841.51  1876.83  1891.77  1914.34  1930.07
                             1935.09  1961.72  1969.65  1988.19  1995.12
                             2003.30  2018.86  2033.20  2048.21  2057.09
                             2082.61  2116.22  2118.98  2119.33  2141.51
                             2143.24  2154.90  2165.28  2165.90  4315.36
                             4363.09  4369.29  4372.28  4402.71  4406.81
                             4417.42  4418.82  4422.72  4428.11  4487.98
                             4490.97  4493.45  4503.15  4505.00  4511.54
                             4516.84  4521.90

 Zero-point correction=                           0.280625 (Hartree/Particle)
 Thermal correction to Energy=                    0.292407
 Thermal correction to Enthalpy=                  0.293352
 Thermal correction to Gibbs Free Energy=         0.242196
 Sum of electronic and zero-point Energies=           -617.226608
 Sum of electronic and thermal Energies=              -617.214826
 Sum of electronic and thermal Enthalpies=            -617.213882
 Sum of electronic and thermal Free Energies=         -617.265037

                     E (Thermal)             CV                S
                      KCal/Mol        Cal/Mol-Kelvin    Cal/Mol-Kelvin
 Total                  183.488             46.827            107.665
 Electronic               0.000              0.000              0.000
 Translational            0.889              2.981             41.570
 Rotational               0.889              2.981             31.438
 Vibrational            181.711             40.865             34.657
 Vibration     1          0.595              1.980              5.108
 Vibration     2          0.597              1.973              4.454
 Vibration     3          0.599              1.965              3.999
 Vibration     4          0.618              1.904              2.692
 Vibration     5          0.640              1.834              2.095
 Vibration     6          0.661              1.769              1.757
 Vibration     7          0.662              1.764              1.737
 Vibration     8          0.679              1.714              1.547
 Vibration     9          0.702              1.645              1.335
 Vibration    10          0.731              1.563              1.140
 Vibration    11          0.755              1.499              1.013
 Vibration    12          0.796              1.393              0.841
 Vibration    13          0.805              1.371              0.809
 Vibration    14          0.823              1.326              0.749
 Vibration    15          0.854              1.252              0.661
 Vibration    16          0.874              1.208              0.613
 Vibration    17          0.902              1.148              0.552
 Vibration    18          0.962              1.024              0.443

 Optimization completed.
    -- Stationary point found.
 Normal termination of Gaussian 16 at Sun Mar 10 06:53:57 2019.
