 Gaussian 16, Revision B.01,
 Gaussian 16:  ES64L-G16RevB.01 20-Dec-2017

 ----------------------------------------------------------------------
 #M062X/6-311++G(2d,2p) opt=ModRedundant freq=noraman SCRF=(SMD,solvent
 =water)
 ----------------------------------------------------------------------

 -------------------------------
 4c1_b1_4e_4c1_PHI.inp_extract_4
 -------------------------------
 Symbolic Z-matrix:
 Charge =  0 Multiplicity = 1

 SCF Done:  E(RM062X) =  -617.499622791     A.U. after   12 cycles
 SCF Done:  E(RM062X) =  -617.501176283     A.U. after   10 cycles
 SCF Done:  E(RM062X) =  -617.501311773     A.U. after   10 cycles
 SCF Done:  E(RM062X) =  -617.501381071     A.U. after    9 cycles
 SCF Done:  E(RM062X) =  -617.501385458     A.U. after    8 cycles
 SCF Done:  E(RM062X) =  -617.501385875     A.U. after    7 cycles
 Optimization completed.
    -- Stationary point found.
 Normal termination of Gaussian 16 at Sun Mar 10 06:42:31 2019.

 ----------------------------------------------------------------------
 #N Geom=AllCheck Guess=TCheck SCRF=Check GenChk RM062X/6-311++G(2d,2p)
  Freq
 ----------------------------------------------------------------------

 Structure from the checkpoint file:  "4c1_b1_4e_4c1_PHI.inp_extract_4.chk"
 -------------------------------
 4c1_b1_4e_4c1_PHI.inp_extract_4
 -------------------------------
 Charge =  0 Multiplicity = 1

                         Standard orientation:
 ---------------------------------------------------------------------
 Center     Atomic      Atomic             Coordinates (Angstroms)
 Number     Number       Type             X           Y           Z
 ---------------------------------------------------------------------
      1          6           0       -3.698796   -0.645107    0.356405
      2          6           0        2.261992   -1.228892   -0.446401
      3          6           0        2.836241    1.402410    0.505046
      4          8           0        3.456491   -0.549311   -0.800219
      5          8           0       -1.318793    0.767358   -0.417163
      6          6           0       -2.592329    1.198917   -0.905327
      7          8           0       -0.003627   -1.044427    0.161051
      8          6           0       -3.699174    0.856077    0.075774
      9          6           0        1.500009    0.750545    0.860764
     10          6           0       -1.288530   -0.635688   -0.247586
     11          6           0        3.882552    0.337103    0.234488
     12          6           0        1.118132   -0.248392   -0.220896
     13          6           0       -2.300225   -1.092253    0.780275
     14          1           0       -4.425341   -0.897145    1.127497
     15          1           0       -3.989093   -1.181160   -0.550968
     16          1           0        2.422337   -1.814217    0.466981
     17          1           0        2.024573   -1.907185   -1.263685
     18          1           0        2.723754    2.023513   -0.386397
     19          1           0        3.177753    2.046180    1.315782
     20          1           0       -2.781266    0.721423   -1.873144
     21          1           0       -2.504480    2.271761   -1.059281
     22          1           0       -3.533570    1.408621    1.003346
     23          1           0       -4.654812    1.178193   -0.338617
     24          1           0        1.597439    0.204180    1.803340
     25          1           0        0.717638    1.496882    0.984450
     26          1           0       -1.508960   -1.085808   -1.227111
     27          1           0        4.819315    0.772960   -0.106130
     28          1           0        4.075649   -0.244769    1.142840
     29          1           0        0.914885    0.267108   -1.161139
     30          1           0       -2.027020   -0.641891    1.737507
     31          1           0       -2.240602   -2.175927    0.880128
 ---------------------------------------------------------------------

 SCF Done:  E(RM062X) =  -617.501385875     A.U. after    1 cycles

 The electronic state is 1-A.
 Alpha  occ. eigenvalues --  -19.63301 -19.63205 -19.63062 -10.63431 -10.58223
 Alpha  occ. eigenvalues --  -10.57645 -10.57441 -10.57354 -10.52552 -10.52446
 Alpha  occ. eigenvalues --  -10.52407 -10.52288 -10.52215  -1.19921  -1.16303
 Alpha  occ. eigenvalues --   -1.13584  -0.90637  -0.89325  -0.86893  -0.83578
 Alpha  occ. eigenvalues --   -0.74516  -0.73625  -0.72227  -0.69316  -0.65516
 Alpha  occ. eigenvalues --   -0.64662  -0.59963  -0.57847  -0.56730  -0.54851
 Alpha  occ. eigenvalues --   -0.54368  -0.52318  -0.51646  -0.50562  -0.50023
 Alpha  occ. eigenvalues --   -0.47942  -0.46304  -0.45783  -0.45386  -0.44365
 Alpha  occ. eigenvalues --   -0.42965  -0.40692  -0.40093  -0.39683  -0.39397
 Alpha  occ. eigenvalues --   -0.38978  -0.37647  -0.36963  -0.35212  -0.32591
 Alpha  occ. eigenvalues --   -0.31166
 Alpha virt. eigenvalues --    0.00495   0.01287   0.01326   0.01442   0.02611
 Alpha virt. eigenvalues --    0.02898   0.03030   0.03933   0.04098   0.04736
 Alpha virt. eigenvalues --    0.04988   0.05248   0.05913   0.06138   0.07203

 Mulliken charges:
               1
     1  C   -0.435120
     2  C   -0.281372
     3  C   -0.361353
     4  O   -0.385559
     5  O   -0.346721
     6  C   -0.220531
     7  O   -0.349319
     8  C   -0.256946
     9  C   -0.229394
    10  C   -0.235449
    11  C   -0.207705
    12  C   -0.091401
    13  C   -0.065697
    14  H    0.192884
    15  H    0.180530
    16  H    0.198467
    17  H    0.207279
    18  H    0.170036
    19  H    0.180862
    20  H    0.166341
    21  H    0.200228
    22  H    0.157530
    23  H    0.179411
    24  H    0.214700
    25  H    0.177242
    26  H    0.243663
    27  H    0.213950
    28  H    0.154661
    29  H    0.265071
    30  H    0.177523
    31  H    0.186186
 Sum of Mulliken charges =  -0.00000

 Dipole moment (field-independent basis, Debye):
    X=             -3.3473    Y=              1.2746    Z=              0.6386  Tot=              3.6383
 Quadrupole moment (field-independent basis, Debye-Ang):
   XX=            -72.3139   YY=            -79.3611   ZZ=            -79.7712
   XY=              3.9174   XZ=              9.0539   YZ=              0.1271

  Exact polarizability: 185.489   1.422 174.209   2.528  -0.842 168.565
 Approx polarizability: 147.038   1.422 143.939   2.056  -0.613 141.627

 ******    1 imaginary frequencies (negative Signs) ******

                      1                      2                      3
                      A                      A                      A
 Frequencies --    -48.2486                57.4329                84.8574
 Red. masses --      4.0870                 3.5350                 3.6508
 Frc consts  --      0.0056                 0.0069                 0.0155
 IR Inten    --      5.1155                 1.8065                 1.1599

                      4                      5                      6
                      A                      A                      A
 Frequencies --    155.8213               189.3840               247.6451
 Red. masses --      3.2726                 3.0489                 2.3583
 Frc consts  --      0.0468                 0.0644                 0.0852
 IR Inten    --      0.9711                 2.4284                 7.1550

                      7                      8                      9
                      A                      A                      A
 Frequencies --    248.2756               271.9875               306.4767
 Red. masses --      2.0317                 3.7156                 4.2001
 Frc consts  --      0.0738                 0.1619                 0.2324
 IR Inten    --      4.8007                 0.5572                19.7067

                     10                     11                     12
                      A                      A                      A
 Frequencies --    353.3714               376.1143               434.2636
 Red. masses --      1.9193                 2.3824                 3.0889
 Frc consts  --      0.1412                 0.1986                 0.3432
 IR Inten    --      1.7417                10.1230                 8.0680

                     13                     14                     15
                      A                      A                      A
 Frequencies --    451.9944               466.4606               488.4116
 Red. masses --      3.3018                 3.1157                 2.3970
 Frc consts  --      0.3974                 0.3994                 0.3369
 IR Inten    --      3.4871                 1.9190                 1.2963

                     16                     17                     18
                      A                      A                      A
 Frequencies --    505.9347               546.5330               608.8644
 Red. masses --      3.1022                 1.9887                 2.4241
 Frc consts  --      0.4679                 0.3500                 0.5295
 IR Inten    --      9.3014                 9.7450                14.8726

                     19                     20                     21
                      A                      A                      A
 Frequencies --    642.0185               830.1220               837.3235
 Red. masses --      3.0412                 2.1628                 1.8167
 Frc consts  --      0.7386                 0.8781                 0.7504
 IR Inten    --      2.2279                 0.3065                 2.5433

                     22                     23                     24
                      A                      A                      A
 Frequencies --    856.9732               876.1508               882.0552
 Red. masses --      1.7716                 1.3955                 2.0723
 Frc consts  --      0.7666                 0.6311                 0.9499
 IR Inten    --     20.3286                16.3996                 5.0429

                     25                     26                     27
                      A                      A                      A
 Frequencies --    898.9078               941.8844               943.8917
 Red. masses --      2.3825                 2.2390                 2.1947
 Frc consts  --      1.1343                 1.1703                 1.1520
 IR Inten    --     13.4480                59.4660                25.1392

                     28                     29                     30
                      A                      A                      A
 Frequencies --    958.8671               981.0553               996.3339
 Red. masses --      2.0183                 2.1432                 1.3956
 Frc consts  --      1.0933                 1.2153                 0.8163
 IR Inten    --      7.0346                49.9413                 1.4822

                     31                     32                     33
                      A                      A                      A
 Frequencies --   1008.1083              1054.7524              1062.0938
 Red. masses --      2.1174                 1.7302                 1.5071
 Frc consts  --      1.2679                 1.1341                 1.0016
 IR Inten    --     11.9508                17.9186                44.0523

                     34                     35                     36
                      A                      A                      A
 Frequencies --   1075.8102              1105.1279              1148.8103
 Red. masses --      2.9505                 3.2532                 2.4842
 Frc consts  --      2.0119                 2.3409                 1.9317
 IR Inten    --     24.2706               183.1828                27.3759

                     37                     38                     39
                      A                      A                      A
 Frequencies --   1156.8298              1160.2457              1167.5548
 Red. masses --      2.4208                 2.7150                 2.2603
 Frc consts  --      1.9087                 2.1534                 1.8154
 IR Inten    --    107.8858               114.9880                23.0995

                     40                     41                     42
                      A                      A                      A
 Frequencies --   1184.5486              1200.0143              1210.5755
 Red. masses --      2.2789                 1.4806                 1.5036
 Frc consts  --      1.8840                 1.2562                 1.2982
 IR Inten    --      1.1527                12.2441                49.5166

                     43                     44                     45
                      A                      A                      A
 Frequencies --   1242.2708              1248.6741              1264.5724
 Red. masses --      1.6468                 1.8500                 2.9985
 Frc consts  --      1.4973                 1.6995                 2.8251
 IR Inten    --      8.5313                95.3360               377.5740

                     46                     47                     48
                      A                      A                      A
 Frequencies --   1278.9042              1302.3404              1319.0124
 Red. masses --      1.2630                 1.2126                 1.2453
 Frc consts  --      1.2171                 1.2117                 1.2765
 IR Inten    --     31.9859                45.5645                45.9283

                     49                     50                     51
                      A                      A                      A
 Frequencies --   1330.0740              1337.7978              1342.4954
 Red. masses --      1.3288                 1.2705                 1.2650
 Frc consts  --      1.3851                 1.3397                 1.3432
 IR Inten    --      9.3310                 4.1576                 7.8986

                     52                     53                     54
                      A                      A                      A
 Frequencies --   1355.6999              1368.5565              1379.4582
 Red. masses --      1.2797                 1.4494                 1.4532
 Frc consts  --      1.3858                 1.5994                 1.6293
 IR Inten    --     32.1722                 5.5168                 6.8113

                     55                     56                     57
                      A                      A                      A
 Frequencies --   1385.2169              1391.6864              1407.0661
 Red. masses --      1.5154                 1.4834                 1.3185
 Frc consts  --      1.7132                 1.6927                 1.5381
 IR Inten    --      5.8700                31.3833                26.6960

                     58                     59                     60
                      A                      A                      A
 Frequencies --   1409.6686              1425.5211              1435.1624
 Red. masses --      1.4243                 1.4506                 1.3123
 Frc consts  --      1.6676                 1.7368                 1.5926
 IR Inten    --     27.2062                25.0551                24.6482

                     61                     62                     63
                      A                      A                      A
 Frequencies --   1441.4444              1469.3343              1470.8190
 Red. masses --      1.5469                 1.1251                 1.0942
 Frc consts  --      1.8936                 1.4312                 1.3947
 IR Inten    --     30.3966                 2.7177                10.3818

                     64                     65                     66
                      A                      A                      A
 Frequencies --   1471.9906              1488.6557              1489.6638
 Red. masses --      1.0941                 1.1215                 1.1280
 Frc consts  --      1.3967                 1.4644                 1.4748
 IR Inten    --     10.5129                12.2952                28.3319

                     67                     68                     69
                      A                      A                      A
 Frequencies --   1497.7908              1505.9277              1506.6690
 Red. masses --      1.0851                 1.1011                 1.1029
 Frc consts  --      1.4343                 1.4712                 1.4751
 IR Inten    --      1.1634                 6.5169                12.0645

                     70                     71                     72
                      A                      A                      A
 Frequencies --   2992.2510              3031.2713              3035.5704
 Red. masses --      1.0822                 1.0685                 1.0697
 Frc consts  --      5.7091                 5.7845                 5.8077
 IR Inten    --    118.0693                58.6881                77.3859

                     73                     74                     75
                      A                      A                      A
 Frequencies --   3040.7504              3058.9373              3061.7009
 Red. masses --      1.0699                 1.0688                 1.0686
 Frc consts  --      5.8287                 5.8923                 5.9018
 IR Inten    --     69.8450                19.5653                23.0961

                     76                     77                     78
                      A                      A                      A
 Frequencies --   3070.2075              3071.4447              3071.9989
 Red. masses --      1.0619                 1.0623                 1.0613
 Frc consts  --      5.8976                 5.9043                 5.9013
 IR Inten    --     33.1041                41.3970                55.3264

                     79                     80                     81
                      A                      A                      A
 Frequencies --   3091.8108              3119.7931              3121.5328
 Red. masses --      1.0830                 1.0971                 1.1009
 Frc consts  --      6.0996                 6.2916                 6.3203
 IR Inten    --     55.4005                39.7865                47.3371

                     82                     83                     84
                      A                      A                      A
 Frequencies --   3122.9589              3129.0542              3136.3978
 Red. masses --      1.1014                 1.1036                 1.0966
 Frc consts  --      6.3288                 6.3665                 6.3558
 IR Inten    --     57.8013                51.7387                39.3394

                     85                     86                     87
                      A                      A                      A
 Frequencies --   3137.6619              3139.9547              3145.0386
 Red. masses --      1.0961                 1.0978                 1.0962
 Frc consts  --      6.3577                 6.3768                 6.3884
 IR Inten    --     44.7873                40.7027                37.3909

 - Thermochemistry -
 -------------------
 Temperature   298.150 Kelvin.  Pressure   1.00000 Atm.
 Atom     1 has atomic number  6 and mass  12.00000

 Molecular mass:   186.12559 amu.
 Principal axes and moments of inertia in atomic units:
                           1         2         3
     Eigenvalues --   858.132284754.936175100.21443
           X            0.99996   0.00581   0.00647
           Y           -0.00581   0.99998  -0.00088
           Z           -0.00648   0.00084   0.99998
 This molecule is an asymmetric top.
 Rotational symmetry number  1.
 Warning -- assumption of classical behavior for rotation
           may cause significant error
 Rotational temperatures (Kelvin)      0.10093     0.01822     0.01698
 Rotational constants (GHZ):           2.10310     0.37955     0.35386
    1 imaginary frequencies ignored.
 Zero-point vibrational energy     736413.3 (Joules/Mol)
                                  176.00701 (Kcal/Mol)
 Warning -- explicit consideration of  17 degrees of freedom as
           vibrations may cause significant error
 Vibrational temperatures:     82.63   122.09   224.19   272.48   356.31
          (Kelvin)            357.21   391.33   440.95   508.42   541.14
                              624.81   650.32   671.13   702.72   727.93
                              786.34   876.02   923.72  1194.36  1204.72
                             1232.99  1260.59  1269.08  1293.33  1355.16
                             1358.05  1379.60  1411.52  1433.50  1450.44
                             1517.55  1528.12  1547.85  1590.03  1652.88
                             1664.42  1669.33  1679.85  1704.30  1726.55
                             1741.75  1787.35  1796.56  1819.44  1840.06
                             1873.78  1897.76  1913.68  1924.79  1931.55
                             1950.55  1969.05  1984.73  1993.02  2002.33
                             2024.45  2028.20  2051.01  2064.88  2073.92
                             2114.04  2116.18  2117.87  2141.84  2143.29
                             2154.99  2166.69  2167.76  4305.18  4361.32
                             4367.51  4374.96  4401.13  4405.10  4417.34
                             4419.12  4419.92  4448.43  4488.69  4491.19
                             4493.24  4502.01  4512.58  4514.40  4517.69
                             4525.01

 Zero-point correction=                           0.280485 (Hartree/Particle)
 Thermal correction to Energy=                    0.291458
 Thermal correction to Enthalpy=                  0.292402
 Thermal correction to Gibbs Free Energy=         0.243648
 Sum of electronic and zero-point Energies=           -617.220901
 Sum of electronic and thermal Energies=              -617.209928
 Sum of electronic and thermal Enthalpies=            -617.208983
 Sum of electronic and thermal Free Energies=         -617.257737

                     E (Thermal)             CV                S
                      KCal/Mol        Cal/Mol-Kelvin    Cal/Mol-Kelvin
 Total                  182.893             44.938            102.611
 Electronic               0.000              0.000              0.000
 Translational            0.889              2.981             41.570
 Rotational               0.889              2.981             31.410
 Vibrational            181.115             38.977             29.632
 Vibration     1          0.596              1.975              4.544
 Vibration     2          0.601              1.960              3.775
 Vibration     3          0.620              1.896              2.600
 Vibration     4          0.633              1.854              2.234
 Vibration     5          0.661              1.767              1.747
 Vibration     6          0.662              1.766              1.743
 Vibration     7          0.675              1.725              1.584
 Vibration     8          0.697              1.661              1.381
 Vibration     9          0.730              1.568              1.151
 Vibration    10          0.747              1.521              1.055
 Vibration    11          0.795              1.396              0.845
 Vibration    12          0.811              1.356              0.790
 Vibration    13          0.824              1.324              0.748
 Vibration    14          0.844              1.276              0.688
 Vibration    15          0.861              1.237              0.643
 Vibration    16          0.902              1.147              0.551
 Vibration    17          0.968              1.013              0.435

 Optimization completed.
    -- Stationary point found.
 Normal termination of Gaussian 16 at Sun Mar 10 07:41:04 2019.
