 Gaussian 16, Revision B.01,
 Gaussian 16:  ES64L-G16RevB.01 20-Dec-2017

 ----------------------------------------------------------------------
 #M062X/6-311++G(2d,2p) opt=ModRedundant freq=noraman SCRF=(SMD,solvent
 =water)
 ----------------------------------------------------------------------

 --------------------------------
 4c1_b1_4e_4c1_PHI.inp_extract_20
 --------------------------------
 Symbolic Z-matrix:
 Charge =  0 Multiplicity = 1

 SCF Done:  E(RM062X) =  -617.503200835     A.U. after   12 cycles
 SCF Done:  E(RM062X) =  -617.504784611     A.U. after   10 cycles
 SCF Done:  E(RM062X) =  -617.504896876     A.U. after    9 cycles
 SCF Done:  E(RM062X) =  -617.504921526     A.U. after    9 cycles
 SCF Done:  E(RM062X) =  -617.504929996     A.U. after    9 cycles
 SCF Done:  E(RM062X) =  -617.504932199     A.U. after    8 cycles
 SCF Done:  E(RM062X) =  -617.504932308     A.U. after    7 cycles
 Optimization completed.
    -- Stationary point found.
 Normal termination of Gaussian 16 at Sun Mar 10 08:45:54 2019.

 ----------------------------------------------------------------------
 #N Geom=AllCheck Guess=TCheck SCRF=Check GenChk RM062X/6-311++G(2d,2p)
  Freq
 ----------------------------------------------------------------------

 Structure from the checkpoint file:  "4c1_b1_4e_4c1_PHI.inp_extract_20.chk"
 --------------------------------
 4c1_b1_4e_4c1_PHI.inp_extract_20
 --------------------------------
 Charge =  0 Multiplicity = 1

                         Standard orientation:
 ---------------------------------------------------------------------
 Center     Atomic      Atomic             Coordinates (Angstroms)
 Number     Number       Type             X           Y           Z
 ---------------------------------------------------------------------
      1          6           0        3.187071   -0.924116    1.022778
      2          6           0       -2.184848   -1.016995   -0.795403
      3          6           0       -3.096414    1.067086    0.939253
      4          8           0       -3.413822   -1.110209   -0.093238
      5          8           0        2.015262    0.822948   -0.935542
      6          6           0        3.248433    1.183972   -0.304828
      7          8           0        0.008215   -0.145290   -0.807090
      8          6           0        4.037970   -0.044538    0.110260
      9          6           0       -1.731608    1.195322    0.263043
     10          6           0        1.184145    0.081503   -0.066295
     11          6           0       -4.003342    0.174264    0.111959
     12          6           0       -1.174820   -0.193509   -0.011729
     13          6           0        1.848863   -1.217517    0.345920
     14          1           0        3.703465   -1.852707    1.262254
     15          1           0        3.007942   -0.399720    1.965302
     16          1           0       -2.346669   -0.552375   -1.775358
     17          1           0       -1.818183   -2.031457   -0.940131
     18          1           0       -2.982107    0.633078    1.934937
     19          1           0       -3.561997    2.045711    1.055764
     20          1           0        3.028116    1.806201    0.569615
     21          1           0        3.788932    1.786111   -1.031240
     22          1           0        4.323040   -0.602712   -0.784347
     23          1           0        4.952787    0.274186    0.610663
     24          1           0       -1.841545    1.710232   -0.695248
     25          1           0       -1.041665    1.772926    0.878420
     26          1           0        0.959817    0.696180    0.815142
     27          1           0       -4.952647   -0.004921    0.612081
     28          1           0       -4.200836    0.633491   -0.863158
     29          1           0       -0.966547   -0.709085    0.931122
     30          1           0        2.000316   -1.812714   -0.557646
     31          1           0        1.177854   -1.764843    1.009045
 ---------------------------------------------------------------------

 SCF Done:  E(RM062X) =  -617.504932308     A.U. after    1 cycles

 The electronic state is 1-A.
 Alpha  occ. eigenvalues --  -19.63535 -19.63277 -19.63171 -10.63406 -10.58513
 Alpha  occ. eigenvalues --  -10.57642 -10.57618 -10.57428 -10.52575 -10.52530
 Alpha  occ. eigenvalues --  -10.52473 -10.52312 -10.52277  -1.20104  -1.16425
 Alpha  occ. eigenvalues --   -1.13908  -0.90136  -0.89690  -0.86964  -0.83674
 Alpha  occ. eigenvalues --   -0.74360  -0.73231  -0.72943  -0.69678  -0.65443
 Alpha  occ. eigenvalues --   -0.64973  -0.59727  -0.58378  -0.56227  -0.55212
 Alpha  occ. eigenvalues --   -0.53947  -0.52480  -0.51973  -0.50712  -0.49801
 Alpha  occ. eigenvalues --   -0.47911  -0.46763  -0.46029  -0.45521  -0.45349
 Alpha  occ. eigenvalues --   -0.42455  -0.40915  -0.40165  -0.39782  -0.39277
 Alpha  occ. eigenvalues --   -0.39176  -0.37592  -0.37174  -0.35156  -0.32708
 Alpha  occ. eigenvalues --   -0.31540
 Alpha virt. eigenvalues --    0.00502   0.01265   0.01426   0.01545   0.02613
 Alpha virt. eigenvalues --    0.02922   0.02979   0.04093   0.04246   0.04705
 Alpha virt. eigenvalues --    0.05165   0.05173   0.05835   0.06189   0.07175

 Mulliken charges:
               1
     1  C   -0.402455
     2  C   -0.240075
     3  C   -0.391169
     4  O   -0.379489
     5  O   -0.403769
     6  C   -0.100304
     7  O   -0.400411
     8  C   -0.347939
     9  C   -0.144784
    10  C   -0.038096
    11  C   -0.210248
    12  C   -0.239460
    13  C   -0.180961
    14  H    0.175753
    15  H    0.181734
    16  H    0.202770
    17  H    0.207714
    18  H    0.169046
    19  H    0.186123
    20  H    0.151611
    21  H    0.214186
    22  H    0.165851
    23  H    0.182406
    24  H    0.215663
    25  H    0.153446
    26  H    0.272135
    27  H    0.212088
    28  H    0.159215
    29  H    0.262048
    30  H    0.211164
    31  H    0.156209
 Sum of Mulliken charges =  -0.00000

 Dipole moment (field-independent basis, Debye):
    X=              1.5845    Y=              1.5703    Z=              3.8693  Tot=              4.4663
 Quadrupole moment (field-independent basis, Debye-Ang):
   XX=            -71.2681   YY=            -80.5050   ZZ=            -82.7078
   XY=             -8.3642   XZ=              4.1070   YZ=              2.1943

  Exact polarizability: 188.584   0.808 170.163  -2.034   0.827 169.072
 Approx polarizability: 148.619   0.780 140.737  -1.756   0.164 142.923

                      1                      2                      3
                      A                      A                      A
 Frequencies --     26.9208                45.9463                73.0749
 Red. masses --      3.8255                 3.6461                 3.5248
 Frc consts  --      0.0016                 0.0045                 0.0111
 IR Inten    --      0.8263                 3.1094                 1.3898

                      4                      5                      6
                      A                      A                      A
 Frequencies --    148.9656               199.7045               246.2087
 Red. masses --      2.8808                 3.3873                 2.1143
 Frc consts  --      0.0377                 0.0796                 0.0755
 IR Inten    --      0.5085                 3.4852                 8.1902

                      7                      8                      9
                      A                      A                      A
 Frequencies --    249.3949               271.1428               334.0314
 Red. masses --      2.0620                 4.8711                 2.0527
 Frc consts  --      0.0756                 0.2110                 0.1349
 IR Inten    --      6.9528                 0.8490                 1.4196

                     10                     11                     12
                      A                      A                      A
 Frequencies --    356.6984               384.0595               432.3823
 Red. masses --      2.5912                 3.7538                 2.5621
 Frc consts  --      0.1942                 0.3262                 0.2822
 IR Inten    --     14.0642                 7.8673                11.2848

                     13                     14                     15
                      A                      A                      A
 Frequencies --    458.1991               463.8693               479.5112
 Red. masses --      3.3770                 2.9260                 3.5131
 Frc consts  --      0.4177                 0.3710                 0.4759
 IR Inten    --      4.8051                 0.5867                 6.9080

                     16                     17                     18
                      A                      A                      A
 Frequencies --    514.5545               541.0015               583.0858
 Red. masses --      3.0693                 2.1980                 1.8144
 Frc consts  --      0.4788                 0.3790                 0.3635
 IR Inten    --      5.9079                 8.4558                 9.3231

                     19                     20                     21
                      A                      A                      A
 Frequencies --    661.3043               828.8877               842.2919
 Red. masses --      2.9692                 2.1928                 1.7978
 Frc consts  --      0.7650                 0.8877                 0.7515
 IR Inten    --      7.9073                 0.4013                 2.0964

                     22                     23                     24
                      A                      A                      A
 Frequencies --    858.4673               876.9289               881.9815
 Red. masses --      1.7381                 1.3997                 2.0847
 Frc consts  --      0.7547                 0.6342                 0.9555
 IR Inten    --     22.2793                15.0309                 3.9534

                     25                     26                     27
                      A                      A                      A
 Frequencies --    900.6846               942.5166               948.1589
 Red. masses --      2.3450                 2.1816                 2.3248
 Frc consts  --      1.1209                 1.1418                 1.2314
 IR Inten    --     15.2725                57.8219                35.7947

                     28                     29                     30
                      A                      A                      A
 Frequencies --    962.4683               988.7376              1000.1174
 Red. masses --      2.0113                 2.0934                 1.4196
 Frc consts  --      1.0978                 1.2058                 0.8366
 IR Inten    --      0.2687                38.4940                 5.7577

                     31                     32                     33
                      A                      A                      A
 Frequencies --   1011.3690              1056.1143              1067.3015
 Red. masses --      2.0066                 1.7040                 1.5270
 Frc consts  --      1.2093                 1.1198                 1.0249
 IR Inten    --     21.5803                21.9602                33.2337

                     34                     35                     36
                      A                      A                      A
 Frequencies --   1088.9815              1122.1856              1154.7874
 Red. masses --      2.8514                 3.5329                 2.2882
 Frc consts  --      1.9923                 2.6213                 1.7978
 IR Inten    --    137.0915                66.3636                 0.9811

                     37                     38                     39
                      A                      A                      A
 Frequencies --   1165.1264              1168.7422              1175.4912
 Red. masses --      2.5193                 2.7383                 1.9432
 Frc consts  --      2.0150                 2.2038                 1.5820
 IR Inten    --    134.0275                22.1849                95.3720

                     40                     41                     42
                      A                      A                      A
 Frequencies --   1183.9227              1207.6243              1212.7169
 Red. masses --      2.3771                 1.4543                 1.5162
 Frc consts  --      1.9631                 1.2496                 1.3138
 IR Inten    --      7.5502                19.5838                33.4148

                     43                     44                     45
                      A                      A                      A
 Frequencies --   1241.6208              1251.8401              1263.7101
 Red. masses --      1.8960                 2.4620                 1.6757
 Frc consts  --      1.7221                 2.2732                 1.5767
 IR Inten    --     80.6862               298.9870               104.0023

                     46                     47                     48
                      A                      A                      A
 Frequencies --   1284.3545              1304.8698              1329.9525
 Red. masses --      1.2561                 1.1851                 1.3261
 Frc consts  --      1.2208                 1.1889                 1.3819
 IR Inten    --     20.5483                22.0225                11.6722

                     49                     50                     51
                      A                      A                      A
 Frequencies --   1335.6559              1341.8238              1352.3883
 Red. masses --      1.4041                 1.2881                 1.3090
 Frc consts  --      1.4758                 1.3664                 1.4106
 IR Inten    --     63.4458                 9.5169                 3.3704

                     52                     53                     54
                      A                      A                      A
 Frequencies --   1366.3547              1368.0295              1381.2454
 Red. masses --      1.4008                 1.2865                 1.4186
 Frc consts  --      1.5408                 1.4186                 1.5946
 IR Inten    --     13.1541                13.1947                10.2641

                     55                     56                     57
                      A                      A                      A
 Frequencies --   1387.4482              1398.2213              1401.3106
 Red. masses --      1.5073                 1.4958                 1.3275
 Frc consts  --      1.7096                 1.7229                 1.5359
 IR Inten    --      6.7038                33.5939                24.9746

                     58                     59                     60
                      A                      A                      A
 Frequencies --   1415.5387              1434.9829              1437.3151
 Red. masses --      1.3921                 1.4156                 1.5703
 Frc consts  --      1.6435                 1.7174                 1.9113
 IR Inten    --     19.8941                22.2273                60.1395

                     61                     62                     63
                      A                      A                      A
 Frequencies --   1452.4062              1470.7729              1471.3254
 Red. masses --      1.3654                 1.1035                 1.1512
 Frc consts  --      1.6970                 1.4064                 1.4684
 IR Inten    --     34.5226                 9.2141                 5.8573

                     64                     65                     66
                      A                      A                      A
 Frequencies --   1472.8810              1488.9883              1490.1051
 Red. masses --      1.1015                 1.1281                 1.1357
 Frc consts  --      1.4079                 1.4736                 1.4857
 IR Inten    --     18.7471                 8.9493                35.1356

                     67                     68                     69
                      A                      A                      A
 Frequencies --   1498.3935              1506.3052              1507.6099
 Red. masses --      1.0864                 1.1040                 1.1105
 Frc consts  --      1.4371                 1.4759                 1.4871
 IR Inten    --      0.6631                11.1778                12.2638

                     70                     71                     72
                      A                      A                      A
 Frequencies --   3023.7996              3033.2276              3037.6210
 Red. masses --      1.0835                 1.0690                 1.0697
 Frc consts  --      5.8367                 5.7950                 5.8155
 IR Inten    --     60.0863                36.8159                77.2128

                     73                     74                     75
                      A                      A                      A
 Frequencies --   3039.7407              3055.0114              3060.7215
 Red. masses --      1.0700                 1.0793                 1.0683
 Frc consts  --      5.8253                 5.9348                 5.8967
 IR Inten    --     66.4130                25.1223                23.2192

                     76                     77                     78
                      A                      A                      A
 Frequencies --   3064.2235              3069.4369              3070.7119
 Red. masses --      1.0677                 1.0616                 1.0609
 Frc consts  --      5.9067                 5.8930                 5.8937
 IR Inten    --     58.6403                32.9126                54.3231

                     79                     80                     81
                      A                      A                      A
 Frequencies --   3073.0868              3118.4465              3118.5691
 Red. masses --      1.0625                 1.0984                 1.0985
 Frc consts  --      5.9117                 6.2935                 6.2945
 IR Inten    --     43.3994                13.1944                67.2124

                     82                     83                     84
                      A                      A                      A
 Frequencies --   3121.1030              3124.4317              3125.1067
 Red. masses --      1.1015                 1.1048                 1.1026
 Frc consts  --      6.3220                 6.3543                 6.3446
 IR Inten    --     38.0572                74.5482                51.2518

                     85                     86                     87
                      A                      A                      A
 Frequencies --   3139.4921              3141.7672              3144.1668
 Red. masses --      1.0966                 1.0970                 1.0963
 Frc consts  --      6.3681                 6.3797                 6.3855
 IR Inten    --     41.1955                39.3794                39.0652

 - Thermochemistry -
 -------------------
 Temperature   298.150 Kelvin.  Pressure   1.00000 Atm.
 Atom     1 has atomic number  6 and mass  12.00000

 Molecular mass:   186.12559 amu.
 Principal axes and moments of inertia in atomic units:
                           1         2         3
     Eigenvalues --   836.851175095.242055353.93979
           X            0.99993  -0.01109   0.00394
           Y            0.01098   0.99959   0.02629
           Z           -0.00423  -0.02624   0.99965
 This molecule is an asymmetric top.
 Rotational symmetry number  1.
 Warning -- assumption of classical behavior for rotation
           may cause significant error
 Rotational temperatures (Kelvin)      0.10350     0.01700     0.01618
 Rotational constants (GHZ):           2.15659     0.35420     0.33709
 Zero-point vibrational energy     737687.8 (Joules/Mol)
                                  176.31162 (Kcal/Mol)
 Warning -- explicit consideration of  18 degrees of freedom as
           vibrations may cause significant error
 Vibrational temperatures:     38.73    66.11   105.14   214.33   287.33
          (Kelvin)            354.24   358.82   390.11   480.60   513.21
                              552.58   622.10   659.25   667.40   689.91
                              740.33   778.38   838.93   951.47  1192.58
                             1211.87  1235.14  1261.71  1268.97  1295.88
                             1356.07  1364.19  1384.78  1422.57  1438.95
                             1455.13  1519.51  1535.61  1566.80  1614.57
                             1661.48  1676.36  1681.56  1691.27  1703.40
                             1737.50  1744.83  1786.42  1801.12  1818.20
                             1847.90  1877.42  1913.51  1921.71  1930.59
                             1945.79  1965.88  1968.29  1987.30  1996.23
                             2011.73  2016.17  2036.64  2064.62  2067.98
                             2089.69  2116.11  2116.91  2119.15  2142.32
                             2143.93  2155.85  2167.24  2169.11  4350.57
                             4364.14  4370.46  4373.51  4395.48  4403.70
                             4408.73  4416.24  4418.07  4421.49  4486.75
                             4486.93  4490.57  4495.36  4496.33  4517.03
                             4520.30  4523.75

 Zero-point correction=                           0.280970 (Hartree/Particle)
 Thermal correction to Energy=                    0.292821
 Thermal correction to Enthalpy=                  0.293765
 Thermal correction to Gibbs Free Energy=         0.241843
 Sum of electronic and zero-point Energies=           -617.223962
 Sum of electronic and thermal Energies=              -617.212111
 Sum of electronic and thermal Enthalpies=            -617.211167
 Sum of electronic and thermal Free Energies=         -617.263089

                     E (Thermal)             CV                S
                      KCal/Mol        Cal/Mol-Kelvin    Cal/Mol-Kelvin
 Total                  183.748             46.744            109.278
 Electronic               0.000              0.000              0.000
 Translational            0.889              2.981             41.570
 Rotational               0.889              2.981             31.502
 Vibrational            181.970             40.782             36.207
 Vibration     1          0.593              1.984              6.044
 Vibration     2          0.595              1.979              4.985
 Vibration     3          0.599              1.967              4.069
 Vibration     4          0.618              1.904              2.685
 Vibration     5          0.638              1.840              2.136
 Vibration     6          0.661              1.769              1.758
 Vibration     7          0.662              1.764              1.735
 Vibration     8          0.675              1.726              1.589
 Vibration     9          0.716              1.608              1.241
 Vibration    10          0.732              1.561              1.136
 Vibration    11          0.753              1.504              1.023
 Vibration    12          0.793              1.400              0.851
 Vibration    13          0.816              1.343              0.771
 Vibration    14          0.821              1.330              0.755
 Vibration    15          0.836              1.295              0.711
 Vibration    16          0.870              1.218              0.623
 Vibration    17          0.896              1.159              0.563
 Vibration    18          0.940              1.068              0.480

 Optimization completed.
    -- Stationary point found.
 Normal termination of Gaussian 16 at Sun Mar 10 09:47:14 2019.
