 Gaussian 16, Revision B.01,
 Gaussian 16:  ES64L-G16RevB.01 20-Dec-2017

 ----------------------------------------------------------------------
 #M062X/6-311++G(2d,2p) opt=ModRedundant freq=noraman SCRF=(SMD,solvent
 =water)
 ----------------------------------------------------------------------

 -------------------------------
 4c1_b1_4e_4c1_PHI.inp_extract_6
 -------------------------------
 Symbolic Z-matrix:
 Charge =  0 Multiplicity = 1

 SCF Done:  E(RM062X) =  -617.497011557     A.U. after   12 cycles
 SCF Done:  E(RM062X) =  -617.498593201     A.U. after   10 cycles
 SCF Done:  E(RM062X) =  -617.498745620     A.U. after   10 cycles
 SCF Done:  E(RM062X) =  -617.498844848     A.U. after    9 cycles
 SCF Done:  E(RM062X) =  -617.498847560     A.U. after    7 cycles
 Optimization completed.
    -- Stationary point found.
 Normal termination of Gaussian 16 at Sun Mar 10 07:00:42 2019.

 ----------------------------------------------------------------------
 #N Geom=AllCheck Guess=TCheck SCRF=Check GenChk RM062X/6-311++G(2d,2p)
  Freq
 ----------------------------------------------------------------------

 Structure from the checkpoint file:  "4c1_b1_4e_4c1_PHI.inp_extract_6.chk"
 -------------------------------
 4c1_b1_4e_4c1_PHI.inp_extract_6
 -------------------------------
 Charge =  0 Multiplicity = 1

                         Standard orientation:
 ---------------------------------------------------------------------
 Center     Atomic      Atomic             Coordinates (Angstroms)
 Number     Number       Type             X           Y           Z
 ---------------------------------------------------------------------
      1          6           0       -3.533972   -0.384032    0.791487
      2          6           0        2.338296   -1.209336   -0.390845
      3          6           0        2.612868    1.494385    0.493789
      4          8           0        3.497695   -0.442431   -0.675826
      5          8           0       -1.334021    0.467712   -0.844621
      6          6           0       -2.668695    0.847453   -1.192884
      7          8           0        0.030401   -1.204178    0.006642
      8          6           0       -3.549516    0.944620    0.039240
      9          6           0        1.311058    0.741480    0.768054
     10          6           0       -1.305869   -0.807289   -0.241367
     11          6           0        3.761970    0.513576    0.351132
     12          6           0        1.104611   -0.320698   -0.303242
     13          6           0       -2.090388   -0.808437    1.056634
     14          1           0       -4.085789   -0.309162    1.727503
     15          1           0       -4.027779   -1.147264    0.183952
     16          1           0        2.468662   -1.744460    0.557308
     17          1           0        2.227706   -1.934845   -1.194453
     18          1           0        2.523159    2.073121   -0.428204
     19          1           0        2.832237    2.191890    1.302334
     20          1           0       -3.075374    0.110580   -1.894089
     21          1           0       -2.581151    1.802595   -1.705281
     22          1           0       -3.171234    1.742146    0.682796
     23          1           0       -4.561020    1.213236   -0.266499
     24          1           0        1.374765    0.235915    1.736167
     25          1           0        0.461956    1.422516    0.800300
     26          1           0       -1.737667   -1.529392   -0.946427
     27          1           0        4.684494    1.015864    0.067757
     28          1           0        3.926924   -0.017181    1.295684
     29          1           0        0.948448    0.148094   -1.275256
     30          1           0       -1.601864   -0.107914    1.739138
     31          1           0       -2.041259   -1.804897    1.495714
 ---------------------------------------------------------------------

 SCF Done:  E(RM062X) =  -617.498847560     A.U. after    1 cycles

 The electronic state is 1-A.
 Alpha  occ. eigenvalues --  -19.63323 -19.63075 -19.63053 -10.63454 -10.58211
 Alpha  occ. eigenvalues --  -10.57695 -10.57470 -10.57355 -10.52498 -10.52443
 Alpha  occ. eigenvalues --  -10.52288 -10.52237 -10.52193  -1.19832  -1.16314
 Alpha  occ. eigenvalues --   -1.13516  -0.90446  -0.89344  -0.86937  -0.83620
 Alpha  occ. eigenvalues --   -0.74648  -0.73538  -0.72350  -0.69217  -0.65162
 Alpha  occ. eigenvalues --   -0.64897  -0.59922  -0.57969  -0.56498  -0.54728
 Alpha  occ. eigenvalues --   -0.54166  -0.52281  -0.51824  -0.50380  -0.50183
 Alpha  occ. eigenvalues --   -0.47917  -0.46316  -0.45681  -0.45534  -0.44733
 Alpha  occ. eigenvalues --   -0.42677  -0.40871  -0.40264  -0.39650  -0.39202
 Alpha  occ. eigenvalues --   -0.38969  -0.37448  -0.36888  -0.35386  -0.32572
 Alpha  occ. eigenvalues --   -0.30745
 Alpha virt. eigenvalues --    0.00457   0.01282   0.01369   0.01404   0.02650
 Alpha virt. eigenvalues --    0.02944   0.03042   0.03839   0.04077   0.04882
 Alpha virt. eigenvalues --    0.05088   0.05267   0.05941   0.06073   0.07180

 Mulliken charges:
               1
     1  C   -0.415157
     2  C   -0.283079
     3  C   -0.395122
     4  O   -0.389223
     5  O   -0.351206
     6  C   -0.202755
     7  O   -0.362926
     8  C   -0.275548
     9  C   -0.181617
    10  C   -0.232568
    11  C   -0.225439
    12  C   -0.131554
    13  C   -0.039322
    14  H    0.180389
    15  H    0.187218
    16  H    0.198711
    17  H    0.212827
    18  H    0.176232
    19  H    0.177367
    20  H    0.169403
    21  H    0.198560
    22  H    0.161812
    23  H    0.186234
    24  H    0.223486
    25  H    0.176167
    26  H    0.249521
    27  H    0.214873
    28  H    0.156232
    29  H    0.262117
    30  H    0.172126
    31  H    0.182239
 Sum of Mulliken charges =   0.00000

 Dipole moment (field-independent basis, Debye):
    X=             -3.7248    Y=              1.6160    Z=              1.5390  Tot=              4.3421
 Quadrupole moment (field-independent basis, Debye-Ang):
   XX=            -74.0326   YY=            -79.4025   ZZ=            -79.5210
   XY=              4.0770   XZ=              8.2403   YZ=              0.6134

  Exact polarizability: 185.074   1.808 173.991   2.395  -1.277 168.507
 Approx polarizability: 147.214   1.992 144.206   1.643  -0.982 140.825

 ******    1 imaginary frequencies (negative Signs) ******

                      1                      2                      3
                      A                      A                      A
 Frequencies --    -66.5523                60.9618                84.6347
 Red. masses --      4.1586                 3.5080                 3.6137
 Frc consts  --      0.0109                 0.0077                 0.0153
 IR Inten    --      6.7162                 1.2901                 0.6247

                      4                      5                      6
                      A                      A                      A
 Frequencies --    155.2898               184.6644               244.0210
 Red. masses --      3.1625                 3.2595                 2.3233
 Frc consts  --      0.0449                 0.0655                 0.0815
 IR Inten    --      0.3445                 4.0330                 8.2025

                      7                      8                      9
                      A                      A                      A
 Frequencies --    251.4931               271.1003               321.3675
 Red. masses --      1.9797                 3.8320                 4.7923
 Frc consts  --      0.0738                 0.1659                 0.2916
 IR Inten    --      5.9718                 0.3304                13.1988

                     10                     11                     12
                      A                      A                      A
 Frequencies --    348.1763               374.4382               434.6872
 Red. masses --      1.8673                 2.4081                 3.2421
 Frc consts  --      0.1334                 0.1989                 0.3609
 IR Inten    --      1.2185                16.1862                 7.8868

                     13                     14                     15
                      A                      A                      A
 Frequencies --    456.1218               466.9622               483.1163
 Red. masses --      3.3932                 2.9928                 2.4021
 Frc consts  --      0.4159                 0.3845                 0.3303
 IR Inten    --      4.5920                 3.3225                 3.7595

                     16                     17                     18
                      A                      A                      A
 Frequencies --    490.8059               552.1771               607.7992
 Red. masses --      3.1411                 1.8831                 2.2189
 Frc consts  --      0.4458                 0.3383                 0.4830
 IR Inten    --      7.0587                 6.3019                13.5874

                     19                     20                     21
                      A                      A                      A
 Frequencies --    652.2351               827.4059               840.8269
 Red. masses --      3.5874                 2.1613                 1.9451
 Frc consts  --      0.8992                 0.8718                 0.8102
 IR Inten    --      9.0438                 1.4861                 3.1749

                     22                     23                     24
                      A                      A                      A
 Frequencies --    853.6916               877.8524               881.6583
 Red. masses --      1.6151                 1.4040                 2.2241
 Frc consts  --      0.6935                 0.6374                 1.0186
 IR Inten    --     24.6069                18.0067                 2.4885

                     25                     26                     27
                      A                      A                      A
 Frequencies --    898.3160               942.2190               948.1631
 Red. masses --      2.4304                 2.2306                 2.1829
 Frc consts  --      1.1555                 1.1667                 1.1563
 IR Inten    --     12.1614                59.2658                18.6673

                     28                     29                     30
                      A                      A                      A
 Frequencies --    959.4438               977.3093               998.5810
 Red. masses --      1.9850                 2.2122                 1.4348
 Frc consts  --      1.0766                 1.2449                 0.8430
 IR Inten    --      5.7559                35.7023                 4.6565

                     31                     32                     33
                      A                      A                      A
 Frequencies --   1008.0766              1053.8490              1063.8762
 Red. masses --      2.0522                 1.8226                 1.7234
 Frc consts  --      1.2288                 1.1926                 1.1492
 IR Inten    --     12.7364                16.5997                32.0455

                     34                     35                     36
                      A                      A                      A
 Frequencies --   1067.1593              1104.3723              1149.1413
 Red. masses --      2.0801                 3.1750                 2.5408
 Frc consts  --      1.3957                 2.2815                 1.9768
 IR Inten    --     33.7139               135.6984                48.8341

                     37                     38                     39
                      A                      A                      A
 Frequencies --   1160.4935              1161.4039              1167.6877
 Red. masses --      2.3308                 2.6429                 2.1967
 Frc consts  --      1.8495                 2.1004                 1.7647
 IR Inten    --     25.3931               130.9215                54.4157

                     40                     41                     42
                      A                      A                      A
 Frequencies --   1186.3546              1200.4061              1211.7041
 Red. masses --      2.4008                 1.4246                 1.4809
 Frc consts  --      1.9908                 1.2095                 1.2811
 IR Inten    --      0.5153                11.1045                28.1069

                     43                     44                     45
                      A                      A                      A
 Frequencies --   1231.9231              1244.2534              1251.3918
 Red. masses --      5.5555                 1.5714                 1.7890
 Frc consts  --      4.9676                 1.4334                 1.6506
 IR Inten    --    540.1910                34.2475                98.5328

                     46                     47                     48
                      A                      A                      A
 Frequencies --   1279.0709              1302.2695              1324.3920
 Red. masses --      1.2454                 1.1701                 1.3114
 Frc consts  --      1.2005                 1.1691                 1.3552
 IR Inten    --     10.6139                20.2905                50.5457

                     49                     50                     51
                      A                      A                      A
 Frequencies --   1332.7702              1339.0607              1347.4112
 Red. masses --      1.3174                 1.2304                 1.2977
 Frc consts  --      1.3788                 1.2999                 1.3881
 IR Inten    --     19.1120                 2.0471                 0.6211

                     52                     53                     54
                      A                      A                      A
 Frequencies --   1353.7515              1367.3577              1381.5711
 Red. masses --      1.2598                 1.4196                 1.4432
 Frc consts  --      1.3603                 1.5638                 1.6230
 IR Inten    --     21.8437                 1.3658                 7.1895

                     55                     56                     57
                      A                      A                      A
 Frequencies --   1386.6389              1395.7200              1406.7601
 Red. masses --      1.5148                 1.4717                 1.2937
 Frc consts  --      1.7160                 1.6891                 1.5084
 IR Inten    --      6.2010                29.9387                15.5995

                     58                     59                     60
                      A                      A                      A
 Frequencies --   1410.7836              1424.3044              1434.4718
 Red. masses --      1.4052                 1.3933                 1.3900
 Frc consts  --      1.6478                 1.6654                 1.6852
 IR Inten    --     24.1606                12.1367                16.4376

                     61                     62                     63
                      A                      A                      A
 Frequencies --   1439.0461              1469.2278              1471.2949
 Red. masses --      1.5143                 1.1151                 1.0934
 Frc consts  --      1.8476                 1.4183                 1.3945
 IR Inten    --     35.2483                 2.5016                 8.9184

                     64                     65                     66
                      A                      A                      A
 Frequencies --   1472.4536              1486.6274              1487.2774
 Red. masses --      1.0899                 1.1245                 1.1235
 Frc consts  --      1.3923                 1.4642                 1.4642
 IR Inten    --      9.5747                10.0409                29.3160

                     67                     68                     69
                      A                      A                      A
 Frequencies --   1499.4083              1506.3537              1507.3096
 Red. masses --      1.0849                 1.1032                 1.1026
 Frc consts  --      1.4371                 1.4749                 1.4760
 IR Inten    --      0.9023                 7.9985                10.1621

                     70                     71                     72
                      A                      A                      A
 Frequencies --   3016.2698              3032.9705              3034.4930
 Red. masses --      1.0837                 1.0682                 1.0696
 Frc consts  --      5.8091                 5.7895                 5.8031
 IR Inten    --     97.1884                46.4138                90.9916

                     73                     74                     75
                      A                      A                      A
 Frequencies --   3041.2065              3057.7094              3059.4214
 Red. masses --      1.0698                 1.0677                 1.0689
 Frc consts  --      5.8299                 5.8815                 5.8946
 IR Inten    --     70.3214                25.4948                18.6614

                     76                     77                     78
                      A                      A                      A
 Frequencies --   3066.6669              3069.1710              3071.0395
 Red. masses --      1.0624                 1.0615                 1.0624
 Frc consts  --      5.8868                 5.8910                 5.9033
 IR Inten    --     34.5117                59.8631                42.2338

                     79                     80                     81
                      A                      A                      A
 Frequencies --   3100.0807              3118.5758              3121.2905
 Red. masses --      1.0830                 1.0961                 1.1004
 Frc consts  --      6.1323                 6.2805                 6.3165
 IR Inten    --     51.2182                38.3458                50.1001

                     82                     83                     84
                      A                      A                      A
 Frequencies --   3121.6479              3125.7475              3130.2440
 Red. masses --      1.1020                 1.1031                 1.0983
 Frc consts  --      6.3273                 6.3501                 6.3405
 IR Inten    --     50.0862                53.7286                45.9485

                     85                     86                     87
                      A                      A                      A
 Frequencies --   3137.0721              3140.2572              3144.0836
 Red. masses --      1.0962                 1.0976                 1.0966
 Frc consts  --      6.3562                 6.3774                 6.3866
 IR Inten    --     44.7063                42.2500                37.9377

 - Thermochemistry -
 -------------------
 Temperature   298.150 Kelvin.  Pressure   1.00000 Atm.
 Atom     1 has atomic number  6 and mass  12.00000

 Molecular mass:   186.12559 amu.
 Principal axes and moments of inertia in atomic units:
                           1         2         3
     Eigenvalues --   909.408004612.113234816.31698
           X            0.99998   0.00465   0.00495
           Y           -0.00466   0.99998   0.00351
           Z           -0.00493  -0.00353   0.99998
 This molecule is an asymmetric top.
 Rotational symmetry number  1.
 Warning -- assumption of classical behavior for rotation
           may cause significant error
 Rotational temperatures (Kelvin)      0.09524     0.01878     0.01798
 Rotational constants (GHZ):           1.98452     0.39130     0.37471
    1 imaginary frequencies ignored.
 Zero-point vibrational energy     736426.5 (Joules/Mol)
                                  176.01015 (Kcal/Mol)
 Warning -- explicit consideration of  17 degrees of freedom as
           vibrations may cause significant error
 Vibrational temperatures:     87.71   121.77   223.43   265.69   351.09
          (Kelvin)            361.84   390.05   462.38   500.95   538.73
                              625.42   656.26   671.85   695.10   706.16
                              794.46   874.49   938.42  1190.45  1209.76
                             1228.27  1263.03  1268.51  1292.48  1355.64
                             1364.20  1380.43  1406.13  1436.74  1450.40
                             1516.25  1530.68  1535.40  1588.95  1653.36
                             1669.69  1671.00  1680.04  1706.90  1727.12
                             1743.37  1772.46  1790.20  1800.47  1840.30
                             1873.68  1905.50  1917.56  1926.61  1938.62
                             1947.75  1967.32  1987.77  1995.06  2008.13
                             2024.01  2029.80  2049.26  2063.88  2070.47
                             2113.89  2116.87  2118.53  2138.93  2139.86
                             2157.31  2167.31  2168.68  4339.74  4363.77
                             4365.96  4375.62  4399.36  4401.83  4412.25
                             4415.85  4418.54  4460.32  4486.94  4490.84
                             4491.36  4497.25  4503.72  4513.55  4518.13
                             4523.64

 Zero-point correction=                           0.280490 (Hartree/Particle)
 Thermal correction to Energy=                    0.291460
 Thermal correction to Enthalpy=                  0.292405
 Thermal correction to Gibbs Free Energy=         0.243704
 Sum of electronic and zero-point Energies=           -617.218358
 Sum of electronic and thermal Energies=              -617.207387
 Sum of electronic and thermal Enthalpies=            -617.206443
 Sum of electronic and thermal Free Energies=         -617.255143

                     E (Thermal)             CV                S
                      KCal/Mol        Cal/Mol-Kelvin    Cal/Mol-Kelvin
 Total                  182.894             44.944            102.499
 Electronic               0.000              0.000              0.000
 Translational            0.889              2.981             41.570
 Rotational               0.889              2.981             31.380
 Vibrational            181.117             38.982             29.549
 Vibration     1          0.597              1.973              4.426
 Vibration     2          0.601              1.960              3.780
 Vibration     3          0.620              1.897              2.606
 Vibration     4          0.631              1.861              2.281
 Vibration     5          0.659              1.773              1.773
 Vibration     6          0.663              1.760              1.720
 Vibration     7          0.675              1.726              1.589
 Vibration     8          0.707              1.633              1.303
 Vibration     9          0.726              1.579              1.174
 Vibration    10          0.746              1.525              1.062
 Vibration    11          0.795              1.395              0.843
 Vibration    12          0.814              1.347              0.777
 Vibration    13          0.824              1.323              0.746
 Vibration    14          0.839              1.287              0.702
 Vibration    15          0.847              1.270              0.682
 Vibration    16          0.908              1.135              0.540
 Vibration    17          0.967              1.015              0.436

 Optimization completed.
    -- Stationary point found.
 Normal termination of Gaussian 16 at Sun Mar 10 07:58:15 2019.
