 Gaussian 16, Revision B.01,
 Gaussian 16:  ES64L-G16RevB.01 20-Dec-2017

 ----------------------------------------------------------------------
 #M062X/6-311++G(2d,2p) opt=ModRedundant freq=noraman SCRF=(SMD,solvent
 =water)
 ----------------------------------------------------------------------

 --------------------------------
 4c1_b1_4e_4c1_PHI.inp_extract_12
 --------------------------------
 Symbolic Z-matrix:
 Charge =  0 Multiplicity = 1

 SCF Done:  E(RM062X) =  -617.500792062     A.U. after   12 cycles
 SCF Done:  E(RM062X) =  -617.502182710     A.U. after   10 cycles
 SCF Done:  E(RM062X) =  -617.502508242     A.U. after   10 cycles
 SCF Done:  E(RM062X) =  -617.502681406     A.U. after    9 cycles
 SCF Done:  E(RM062X) =  -617.502726243     A.U. after    9 cycles
 SCF Done:  E(RM062X) =  -617.502735296     A.U. after    9 cycles
 SCF Done:  E(RM062X) =  -617.502736350     A.U. after    7 cycles
 Optimization completed.
    -- Stationary point found.
 Normal termination of Gaussian 16 at Sun Mar 10 07:24:36 2019.

 ----------------------------------------------------------------------
 #N Geom=AllCheck Guess=TCheck SCRF=Check GenChk RM062X/6-311++G(2d,2p)
  Freq
 ----------------------------------------------------------------------

 Structure from the checkpoint file:  "4c1_b1_4e_4c1_PHI.inp_extract_12.chk"
 --------------------------------
 4c1_b1_4e_4c1_PHI.inp_extract_12
 --------------------------------
 Charge =  0 Multiplicity = 1

                         Standard orientation:
 ---------------------------------------------------------------------
 Center     Atomic      Atomic             Coordinates (Angstroms)
 Number     Number       Type             X           Y           Z
 ---------------------------------------------------------------------
      1          6           0       -3.033934    1.384563   -0.107152
      2          6           0        2.044883   -1.317547    0.077453
      3          6           0        2.978625    1.351212   -0.305695
      4          8           0        3.151661   -1.026151   -0.760477
      5          8           0       -1.894067   -1.241311   -0.022883
      6          6           0       -3.307417   -1.085040   -0.162659
      7          8           0        0.011922   -0.579198    0.991367
      8          6           0       -3.647871    0.213989   -0.868541
      9          6           0        1.734463    1.109565    0.550150
     10          6           0       -1.312355   -0.189950    0.740548
     11          6           0        3.866805    0.121563   -0.302716
     12          6           0        1.045188   -0.167181    0.093689
     13          6           0       -1.531656    1.161405    0.085254
     14          1           0       -3.203752    2.324053   -0.631207
     15          1           0       -3.513318    1.467440    0.871824
     16          1           0        2.390532   -1.508683    1.100393
     17          1           0        1.574707   -2.218751   -0.311296
     18          1           0        2.686255    1.574756   -1.334107
     19          1           0        3.541639    2.205241    0.070882
     20          1           0       -3.765096   -1.104231    0.833065
     21          1           0       -3.652942   -1.953410   -0.718831
     22          1           0       -3.252662    0.181117   -1.886394
     23          1           0       -4.731710    0.313540   -0.933410
     24          1           0        2.025299    0.978853    1.596277
     25          1           0        1.058375    1.960275    0.494168
     26          1           0       -1.800389   -0.189496    1.721866
     27          1           0        4.714896    0.238482   -0.973884
     28          1           0        4.242351   -0.074081    0.707945
     29          1           0        0.648806   -0.052349   -0.917010
     30          1           0       -1.028807    1.199823   -0.881850
     31          1           0       -1.110690    1.935213    0.725532
 ---------------------------------------------------------------------

 SCF Done:  E(RM062X) =  -617.502736350     A.U. after    1 cycles

 The electronic state is 1-A.
 Alpha  occ. eigenvalues --  -19.63650 -19.63113 -19.62892 -10.63511 -10.58401
 Alpha  occ. eigenvalues --  -10.57524 -10.57450 -10.57391 -10.52650 -10.52600
 Alpha  occ. eigenvalues --  -10.52533 -10.52410 -10.52236  -1.19768  -1.16361
 Alpha  occ. eigenvalues --   -1.13539  -0.90084  -0.89858  -0.86910  -0.83864
 Alpha  occ. eigenvalues --   -0.74586  -0.73849  -0.72583  -0.69316  -0.66108
 Alpha  occ. eigenvalues --   -0.63982  -0.59850  -0.57746  -0.56223  -0.55686
 Alpha  occ. eigenvalues --   -0.53346  -0.52947  -0.51829  -0.50664  -0.50020
 Alpha  occ. eigenvalues --   -0.48866  -0.46749  -0.45609  -0.45189  -0.44346
 Alpha  occ. eigenvalues --   -0.42568  -0.41493  -0.40163  -0.39502  -0.39184
 Alpha  occ. eigenvalues --   -0.38513  -0.37813  -0.37069  -0.34927  -0.32545
 Alpha  occ. eigenvalues --   -0.31997
 Alpha virt. eigenvalues --    0.00459   0.01275   0.01309   0.01606   0.02644
 Alpha virt. eigenvalues --    0.02917   0.03085   0.03918   0.04212   0.04880
 Alpha virt. eigenvalues --    0.05014   0.05230   0.06033   0.06180   0.07550

 Mulliken charges:
               1
     1  C   -0.554965
     2  C   -0.335643
     3  C   -0.365772
     4  O   -0.373682
     5  O   -0.409883
     6  C   -0.198314
     7  O   -0.358749
     8  C   -0.275404
     9  C   -0.159880
    10  C   -0.136531
    11  C   -0.216241
    12  C   -0.094690
    13  C   -0.079283
    14  H    0.166842
    15  H    0.201818
    16  H    0.202633
    17  H    0.207497
    18  H    0.172941
    19  H    0.183289
    20  H    0.158387
    21  H    0.204324
    22  H    0.161898
    23  H    0.182781
    24  H    0.218426
    25  H    0.188561
    26  H    0.265918
    27  H    0.211526
    28  H    0.157125
    29  H    0.267257
    30  H    0.223360
    31  H    0.184452
 Sum of Mulliken charges =  -0.00000

 Dipole moment (field-independent basis, Debye):
    X=             -2.1271    Y=              4.7602    Z=              0.5162  Tot=              5.2393
 Quadrupole moment (field-independent basis, Debye-Ang):
   XX=            -67.9576   YY=            -82.6089   ZZ=            -81.9679
   XY=              4.6783   XZ=              3.9785   YZ=             -0.8946

  Exact polarizability: 188.976   3.679 171.276  -0.647  -0.155 167.457
 Approx polarizability: 149.557   2.294 140.961  -0.826   0.499 142.141

                      1                      2                      3
                      A                      A                      A
 Frequencies --     22.3329                60.7592                87.4014
 Red. masses --      3.4704                 4.0176                 3.5837
 Frc consts  --      0.0010                 0.0087                 0.0161
 IR Inten    --      1.2424                 1.2637                 2.6764

                      4                      5                      6
                      A                      A                      A
 Frequencies --    141.5944               215.6263               243.2821
 Red. masses --      2.9256                 3.4530                 2.1849
 Frc consts  --      0.0346                 0.0946                 0.0762
 IR Inten    --      0.7630                 4.2093                 3.9672

                      7                      8                      9
                      A                      A                      A
 Frequencies --    247.5600               275.9262               326.9186
 Red. masses --      2.1148                 3.3430                 2.9868
 Frc consts  --      0.0764                 0.1500                 0.1881
 IR Inten    --     11.0165                 3.4424                 3.9064

                     10                     11                     12
                      A                      A                      A
 Frequencies --    361.6359               386.8775               426.9084
 Red. masses --      2.0858                 2.9882                 2.7114
 Frc consts  --      0.1607                 0.2635                 0.2912
 IR Inten    --     11.6382                 7.4054                 6.9079

                     13                     14                     15
                      A                      A                      A
 Frequencies --    448.9874               466.8545               476.3564
 Red. masses --      4.0382                 3.1827                 2.4441
 Frc consts  --      0.4796                 0.4087                 0.3268
 IR Inten    --      3.5707                 1.1141                 2.1365

                     16                     17                     18
                      A                      A                      A
 Frequencies --    501.9654               552.8760               596.7350
 Red. masses --      3.6030                 1.8932                 2.1352
 Frc consts  --      0.5349                 0.3410                 0.4480
 IR Inten    --      2.5611                 5.2217                21.2434

                     19                     20                     21
                      A                      A                      A
 Frequencies --    663.5579               825.1057               831.5838
 Red. masses --      3.5239                 2.1427                 1.9608
 Frc consts  --      0.9142                 0.8595                 0.7989
 IR Inten    --      7.2514                 6.6300                 9.6232

                     22                     23                     24
                      A                      A                      A
 Frequencies --    859.9774               873.2834               880.5413
 Red. masses --      1.6268                 1.4115                 2.2556
 Frc consts  --      0.7089                 0.6342                 1.0304
 IR Inten    --     15.8496                13.5270                 0.0902

                     25                     26                     27
                      A                      A                      A
 Frequencies --    899.8692               931.3825               944.5466
 Red. masses --      2.4346                 2.4376                 2.1697
 Frc consts  --      1.1616                 1.2459                 1.1405
 IR Inten    --     26.4767                17.4543                88.1920

                     28                     29                     30
                      A                      A                      A
 Frequencies --    962.8586               977.2950              1001.3070
 Red. masses --      1.8328                 2.3299                 1.4487
 Frc consts  --      1.0011                 1.3111                 0.8558
 IR Inten    --     23.4600                18.1536                11.6408

                     31                     32                     33
                      A                      A                      A
 Frequencies --   1010.9308              1053.5054              1059.9377
 Red. masses --      2.1944                 1.8433                 1.6601
 Frc consts  --      1.3213                 1.2053                 1.0989
 IR Inten    --     33.8189                37.8176               124.1556

                     34                     35                     36
                      A                      A                      A
 Frequencies --   1068.2503              1089.2863              1116.8076
 Red. masses --      2.4444                 2.3954                 4.6343
 Frc consts  --      1.6435                 1.6746                 3.4056
 IR Inten    --     37.6158                45.1331               300.3568

                     37                     38                     39
                      A                      A                      A
 Frequencies --   1149.1811              1163.9053              1171.4660
 Red. masses --      2.3400                 2.4016                 2.2929
 Frc consts  --      1.8207                 1.9168                 1.8539
 IR Inten    --      4.8360               116.0312                17.1870

                     40                     41                     42
                      A                      A                      A
 Frequencies --   1186.4254              1205.1218              1212.8702
 Red. masses --      2.2589                 1.5970                 1.5389
 Frc consts  --      1.8734                 1.3665                 1.3338
 IR Inten    --      3.2209                13.8323                41.2905

                     43                     44                     45
                      A                      A                      A
 Frequencies --   1234.3736              1248.4308              1256.5026
 Red. masses --      1.5876                 1.5923                 3.2677
 Frc consts  --      1.4252                 1.4622                 3.0396
 IR Inten    --     44.6881                19.1566               357.2747

                     46                     47                     48
                      A                      A                      A
 Frequencies --   1286.2980              1304.2244              1318.2262
 Red. masses --      1.2369                 1.2117                 1.2397
 Frc consts  --      1.2057                 1.2144                 1.2692
 IR Inten    --     11.7640                32.0079                31.6583

                     49                     50                     51
                      A                      A                      A
 Frequencies --   1331.4244              1341.9010              1358.1349
 Red. masses --      1.3062                 1.2419                 1.3132
 Frc consts  --      1.3643                 1.3176                 1.4271
 IR Inten    --     12.7421                 5.0734                 8.0027

                     52                     53                     54
                      A                      A                      A
 Frequencies --   1361.0082              1367.4537              1381.4507
 Red. masses --      1.2372                 1.4421                 1.4292
 Frc consts  --      1.3503                 1.5888                 1.6070
 IR Inten    --     25.9494                14.6427                10.2996

                     55                     56                     57
                      A                      A                      A
 Frequencies --   1385.8695              1392.3484              1405.1507
 Red. masses --      1.5173                 1.4429                 1.2835
 Frc consts  --      1.7170                 1.6481                 1.4931
 IR Inten    --      1.5476                35.8633                 0.2103

                     58                     59                     60
                      A                      A                      A
 Frequencies --   1414.3149              1423.2727              1436.5692
 Red. masses --      1.3999                 1.3009                 1.4531
 Frc consts  --      1.6499                 1.5526                 1.7668
 IR Inten    --     10.2093                14.5920                 3.2189

                     61                     62                     63
                      A                      A                      A
 Frequencies --   1443.8950              1469.3502              1470.7642
 Red. masses --      1.4300                 1.0955                 1.1093
 Frc consts  --      1.7565                 1.3936                 1.4138
 IR Inten    --     55.2705                 7.0189                 3.9293

                     64                     65                     66
                      A                      A                      A
 Frequencies --   1474.3745              1487.2658              1490.6036
 Red. masses --      1.1165                 1.1256                 1.1289
 Frc consts  --      1.4300                 1.4669                 1.4778
 IR Inten    --     10.7069                20.7323                18.2479

                     67                     68                     69
                      A                      A                      A
 Frequencies --   1497.2736              1503.5972              1505.6512
 Red. masses --      1.0854                 1.0973                 1.1039
 Frc consts  --      1.4336                 1.4616                 1.4744
 IR Inten    --      1.0174                 5.6581                10.6260

                     70                     71                     72
                      A                      A                      A
 Frequencies --   3032.3371              3034.9157              3037.3375
 Red. masses --      1.0684                 1.0705                 1.0696
 Frc consts  --      5.7880                 5.8095                 5.8140
 IR Inten    --     54.3727                58.1901                75.1307

                     73                     74                     75
                      A                      A                      A
 Frequencies --   3040.1116              3062.0315              3062.3120
 Red. masses --      1.0842                 1.0695                 1.0682
 Frc consts  --      5.9037                 5.9082                 5.9018
 IR Inten    --     95.1408                 7.8253                37.1970

                     76                     77                     78
                      A                      A                      A
 Frequencies --   3069.8347              3071.9660              3083.5820
 Red. masses --      1.0616                 1.0627                 1.0710
 Frc consts  --      5.8944                 5.9087                 5.9998
 IR Inten    --     49.2750                42.1226                30.4673

                     79                     80                     81
                      A                      A                      A
 Frequencies --   3093.7006              3120.0187              3123.0019
 Red. masses --      1.0723                 1.0981                 1.1006
 Frc consts  --      6.0469                 6.2979                 6.3247
 IR Inten    --     41.7665                40.7282                41.9407

                     82                     83                     84
                      A                      A                      A
 Frequencies --   3123.4311              3137.3254              3138.6221
 Red. masses --      1.1007                 1.0996                 1.0975
 Frc consts  --      6.3270                 6.3765                 6.3697
 IR Inten    --     60.1414                31.1002                42.2347

                     85                     86                     87
                      A                      A                      A
 Frequencies --   3140.6559              3142.3006              3149.0537
 Red. masses --      1.0985                 1.0956                 1.0986
 Frc consts  --      6.3840                 6.3741                 6.4185
 IR Inten    --     66.8812                42.1512                27.9376

 - Thermochemistry -
 -------------------
 Temperature   298.150 Kelvin.  Pressure   1.00000 Atm.
 Atom     1 has atomic number  6 and mass  12.00000

 Molecular mass:   186.12559 amu.
 Principal axes and moments of inertia in atomic units:
                           1         2         3
     Eigenvalues --   939.463334578.183455042.43852
           X            0.99998   0.00318   0.00549
           Y           -0.00314   0.99997  -0.00715
           Z           -0.00551   0.00713   0.99996
 This molecule is an asymmetric top.
 Rotational symmetry number  1.
 Warning -- assumption of classical behavior for rotation
           may cause significant error
 Rotational temperatures (Kelvin)      0.09220     0.01892     0.01718
 Rotational constants (GHZ):           1.92103     0.39420     0.35791
 Zero-point vibrational energy     737090.2 (Joules/Mol)
                                  176.16879 (Kcal/Mol)
 Warning -- explicit consideration of  18 degrees of freedom as
           vibrations may cause significant error
 Vibrational temperatures:     32.13    87.42   125.75   203.72   310.24
          (Kelvin)            350.03   356.18   397.00   470.36   520.31
                              556.63   614.23   645.99   671.70   685.37
                              722.22   795.47   858.57   954.71  1187.14
                             1196.46  1237.32  1256.46  1266.90  1294.71
                             1340.05  1358.99  1385.34  1406.11  1440.66
                             1454.50  1515.76  1525.01  1536.97  1567.24
                             1606.84  1653.42  1674.60  1685.48  1707.00
                             1733.90  1745.05  1775.99  1796.21  1807.83
                             1850.70  1876.49  1896.63  1915.62  1930.70
                             1954.05  1958.19  1967.46  1987.60  1993.96
                             2003.28  2021.70  2034.88  2047.77  2066.90
                             2077.44  2114.07  2116.10  2121.30  2139.84
                             2144.65  2154.24  2163.34  2166.30  4362.86
                             4366.57  4370.05  4374.04  4405.58  4405.98
                             4416.81  4419.87  4436.59  4451.15  4489.01
                             4493.30  4493.92  4513.91  4515.78  4518.70
                             4521.07  4530.79

 Zero-point correction=                           0.280743 (Hartree/Particle)
 Thermal correction to Energy=                    0.292561
 Thermal correction to Enthalpy=                  0.293505
 Thermal correction to Gibbs Free Energy=         0.241839
 Sum of electronic and zero-point Energies=           -617.221994
 Sum of electronic and thermal Energies=              -617.210175
 Sum of electronic and thermal Enthalpies=            -617.209231
 Sum of electronic and thermal Free Energies=         -617.260898

                     E (Thermal)             CV                S
                      KCal/Mol        Cal/Mol-Kelvin    Cal/Mol-Kelvin
 Total                  183.585             46.902            108.742
 Electronic               0.000              0.000              0.000
 Translational            0.889              2.981             41.570
 Rotational               0.889              2.981             31.451
 Vibrational            181.807             40.940             35.721
 Vibration     1          0.593              1.985              6.415
 Vibration     2          0.597              1.973              4.432
 Vibration     3          0.601              1.958              3.717
 Vibration     4          0.615              1.912              2.782
 Vibration     5          0.645              1.817              1.996
 Vibration     6          0.659              1.774              1.779
 Vibration     7          0.661              1.767              1.748
 Vibration     8          0.678              1.718              1.559
 Vibration     9          0.711              1.622              1.275
 Vibration    10          0.736              1.551              1.115
 Vibration    11          0.755              1.498              1.012
 Vibration    12          0.789              1.412              0.869
 Vibration    13          0.808              1.363              0.799
 Vibration    14          0.824              1.324              0.746
 Vibration    15          0.833              1.303              0.720
 Vibration    16          0.857              1.246              0.653
 Vibration    17          0.908              1.133              0.538
 Vibration    18          0.955              1.039              0.455

 Optimization completed.
    -- Stationary point found.
 Normal termination of Gaussian 16 at Sun Mar 10 08:27:11 2019.
