 Gaussian 16, Revision B.01,
 Gaussian 16:  ES64L-G16RevB.01 20-Dec-2017

 ----------------------------------------------------------------------
 #M062X/6-311++G(2d,2p) opt=ModRedundant freq=noraman SCRF=(SMD,solvent
 =water)
 ----------------------------------------------------------------------

 --------------------------------
 4c1_b1_4e_4c1_PHI.inp_extract_23
 --------------------------------
 Symbolic Z-matrix:
 Charge =  0 Multiplicity = 1

 SCF Done:  E(RM062X) =  -617.505243739     A.U. after   12 cycles
 SCF Done:  E(RM062X) =  -617.506917614     A.U. after   10 cycles
 SCF Done:  E(RM062X) =  -617.507120656     A.U. after   10 cycles
 SCF Done:  E(RM062X) =  -617.507151513     A.U. after    9 cycles
 SCF Done:  E(RM062X) =  -617.507155746     A.U. after    8 cycles
 SCF Done:  E(RM062X) =  -617.507156201     A.U. after    6 cycles
 Optimization completed.
    -- Stationary point found.
 Normal termination of Gaussian 16 at Sun Mar 10 09:43:27 2019.

 ----------------------------------------------------------------------
 #N Geom=AllCheck Guess=TCheck SCRF=Check GenChk RM062X/6-311++G(2d,2p)
  Freq
 ----------------------------------------------------------------------

 Structure from the checkpoint file:  "4c1_b1_4e_4c1_PHI.inp_extract_23.chk"
 --------------------------------
 4c1_b1_4e_4c1_PHI.inp_extract_23
 --------------------------------
 Charge =  0 Multiplicity = 1

                         Standard orientation:
 ---------------------------------------------------------------------
 Center     Atomic      Atomic             Coordinates (Angstroms)
 Number     Number       Type             X           Y           Z
 ---------------------------------------------------------------------
      1          6           0        3.555628   -0.762683    0.682796
      2          6           0       -2.307641   -1.229700   -0.467949
      3          6           0       -2.902664    1.352431    0.602924
      4          8           0       -3.567969   -0.931670    0.110383
      5          8           0        1.593561    0.795141   -0.711163
      6          6           0        2.767170    1.429791   -0.196589
      7          8           0        0.006367   -0.799844   -0.458881
      8          6           0        3.933806    0.459672   -0.149600
      9          6           0       -1.502587    1.071549    0.057384
     10          6           0        1.174326   -0.281709    0.115209
     11          6           0       -3.915790    0.442005   -0.066578
     12          6           0       -1.205086   -0.414471    0.189432
     13          6           0        2.241807   -1.354908    0.173390
     14          1           0        4.344317   -1.513348    0.653829
     15          1           0        3.432425   -0.461917    1.726707
     16          1           0       -2.326744   -1.011411   -1.542131
     17          1           0       -2.131373   -2.294238   -0.325813
     18          1           0       -2.925989    1.177393    1.680710
     19          1           0       -3.180762    2.392012    0.430005
     20          1           0        2.552660    1.815284    0.806736
     21          1           0        2.966875    2.272482   -0.854468
     22          1           0        4.181968    0.155153   -1.168848
     23          1           0        4.804204    0.965563    0.269160
     24          1           0       -1.455498    1.337439   -1.002309
     25          1           0       -0.752316    1.661103    0.585163
     26          1           0        0.964838    0.108184    1.119420
     27          1           0       -4.907355    0.561538    0.364519
     28          1           0       -3.970435    0.658381   -1.139388
     29          1           0       -1.146735   -0.689460    1.247592
     30          1           0        2.367897   -1.754814   -0.835702
     31          1           0        1.892536   -2.160212    0.819591
 ---------------------------------------------------------------------

 SCF Done:  E(RM062X) =  -617.507156201     A.U. after    1 cycles

 The electronic state is 1-A.
 Alpha  occ. eigenvalues --  -19.63736 -19.63193 -19.62961 -10.63332 -10.58482
 Alpha  occ. eigenvalues --  -10.57651 -10.57494 -10.57429 -10.52574 -10.52518
 Alpha  occ. eigenvalues --  -10.52506 -10.52384 -10.52233  -1.20031  -1.16434
 Alpha  occ. eigenvalues --   -1.13787  -0.90416  -0.89456  -0.87068  -0.83600
 Alpha  occ. eigenvalues --   -0.74486  -0.73455  -0.72407  -0.69773  -0.65829
 Alpha  occ. eigenvalues --   -0.64666  -0.59536  -0.58289  -0.56181  -0.55372
 Alpha  occ. eigenvalues --   -0.54379  -0.52561  -0.51735  -0.50877  -0.49851
 Alpha  occ. eigenvalues --   -0.47659  -0.46978  -0.45826  -0.45420  -0.44720
 Alpha  occ. eigenvalues --   -0.42003  -0.41195  -0.40506  -0.39802  -0.39290
 Alpha  occ. eigenvalues --   -0.38981  -0.37505  -0.37058  -0.35051  -0.32559
 Alpha  occ. eigenvalues --   -0.32186
 Alpha virt. eigenvalues --    0.00512   0.01258   0.01365   0.01515   0.02615
 Alpha virt. eigenvalues --    0.02935   0.02994   0.04034   0.04144   0.04755
 Alpha virt. eigenvalues --    0.04943   0.05295   0.05913   0.06215   0.07123

 Mulliken charges:
               1
     1  C   -0.392080
     2  C   -0.289991
     3  C   -0.419492
     4  O   -0.385406
     5  O   -0.411856
     6  C   -0.103917
     7  O   -0.397414
     8  C   -0.378374
     9  C   -0.188272
    10  C    0.144880
    11  C   -0.225657
    12  C   -0.176504
    13  C   -0.294015
    14  H    0.197547
    15  H    0.174644
    16  H    0.202332
    17  H    0.215988
    18  H    0.176326
    19  H    0.177908
    20  H    0.149968
    21  H    0.205005
    22  H    0.164742
    23  H    0.181491
    24  H    0.242206
    25  H    0.168593
    26  H    0.261095
    27  H    0.215245
    28  H    0.158155
    29  H    0.258712
    30  H    0.201100
    31  H    0.167043
 Sum of Mulliken charges =  -0.00000

 Dipole moment (field-independent basis, Debye):
    X=              2.3943    Y=              2.2627    Z=              2.6611  Tot=              4.2348
 Quadrupole moment (field-independent basis, Debye-Ang):
   XX=            -74.3722   YY=            -79.1482   ZZ=            -80.8972
   XY=             -7.1279   XZ=              4.9022   YZ=              0.8554

  Exact polarizability: 186.259   0.459 173.904  -1.182   0.759 167.635
 Approx polarizability: 147.086   0.750 142.898  -1.257   0.219 142.380

                      1                      2                      3
                      A                      A                      A
 Frequencies --     45.6511                52.4698                74.1086
 Red. masses --      4.1635                 3.4139                 3.6391
 Frc consts  --      0.0051                 0.0055                 0.0118
 IR Inten    --      2.2667                 2.9417                 0.6741

                      4                      5                      6
                      A                      A                      A
 Frequencies --    149.9563               213.2943               249.9130
 Red. masses --      2.8305                 3.5279                 2.1024
 Frc consts  --      0.0375                 0.0946                 0.0774
 IR Inten    --      1.3411                 7.0029                 8.0057

                      7                      8                      9
                      A                      A                      A
 Frequencies --    254.6411               261.5976               307.8700
 Red. masses --      2.1101                 4.2992                 2.7307
 Frc consts  --      0.0806                 0.1733                 0.1525
 IR Inten    --      4.8894                 1.0534                 0.2875

                     10                     11                     12
                      A                      A                      A
 Frequencies --    358.6995               396.2481               438.5793
 Red. masses --      2.1080                 2.5148                 3.6513
 Frc consts  --      0.1598                 0.2326                 0.4138
 IR Inten    --     10.0380                14.4536                 5.8937

                     13                     14                     15
                      A                      A                      A
 Frequencies --    444.5602               464.9732               505.2503
 Red. masses --      3.5171                 2.7610                 2.7395
 Frc consts  --      0.4095                 0.3517                 0.4120
 IR Inten    --      4.5191                 0.0308                 4.2962

                     16                     17                     18
                      A                      A                      A
 Frequencies --    513.0080               542.9347               598.6916
 Red. masses --      3.0791                 2.2633                 2.1540
 Frc consts  --      0.4774                 0.3931                 0.4549
 IR Inten    --      1.0841                 6.7575                15.1704

                     19                     20                     21
                      A                      A                      A
 Frequencies --    649.3302               827.7282               836.3857
 Red. masses --      2.8963                 2.2102                 1.7331
 Frc consts  --      0.7195                 0.8922                 0.7143
 IR Inten    --      6.0962                 0.5891                 8.4299

                     22                     23                     24
                      A                      A                      A
 Frequencies --    862.0199               879.5694               883.1093
 Red. masses --      1.9052                 1.3936                 1.9126
 Frc consts  --      0.8341                 0.6352                 0.8788
 IR Inten    --     16.0793                15.7780                11.2330

                     25                     26                     27
                      A                      A                      A
 Frequencies --    898.9160               936.1602               943.8217
 Red. masses --      2.4238                 2.4587                 2.1594
 Frc consts  --      1.1539                 1.2696                 1.1334
 IR Inten    --      9.0625                44.5448                64.4264

                     28                     29                     30
                      A                      A                      A
 Frequencies --    960.5581               987.4545              1002.7603
 Red. masses --      2.0553                 2.0677                 1.4378
 Frc consts  --      1.1173                 1.1879                 0.8518
 IR Inten    --      4.8969                47.6261                 4.1579

                     31                     32                     33
                      A                      A                      A
 Frequencies --   1012.0766              1057.7323              1058.8566
 Red. masses --      2.0308                 1.5680                 1.6442
 Frc consts  --      1.2256                 1.0336                 1.0861
 IR Inten    --     10.2180               110.3969                 0.7962

                     34                     35                     36
                      A                      A                      A
 Frequencies --   1087.7162              1108.8089              1120.7152
 Red. masses --      2.6492                 3.1245                 4.6408
 Frc consts  --      1.8467                 2.2633                 3.4343
 IR Inten    --     71.2459                73.7688               262.6829

                     37                     38                     39
                      A                      A                      A
 Frequencies --   1152.6415              1167.5999              1178.3217
 Red. masses --      2.2716                 2.4253                 2.3583
 Frc consts  --      1.7781                 1.9481                 1.9292
 IR Inten    --      3.1177               114.5764                43.2898

                     40                     41                     42
                      A                      A                      A
 Frequencies --   1184.3705              1206.6221              1211.3545
 Red. masses --      2.3412                 1.5978                 1.5335
 Frc consts  --      1.9349                 1.3706                 1.3258
 IR Inten    --      1.9586                65.1628                28.6306

                     43                     44                     45
                      A                      A                      A
 Frequencies --   1230.5746              1240.0979              1247.2222
 Red. masses --      2.6595                 1.9344                 1.5607
 Frc consts  --      2.3728                 1.7527                 1.4304
 IR Inten    --    293.2704                85.5660                20.9440

                     46                     47                     48
                      A                      A                      A
 Frequencies --   1279.9336              1302.5601              1315.6990
 Red. masses --      1.2403                 1.1764                 1.2025
 Frc consts  --      1.1972                 1.1760                 1.2265
 IR Inten    --      5.4415                13.6123                28.7192

                     49                     50                     51
                      A                      A                      A
 Frequencies --   1333.4068              1342.1800              1350.0880
 Red. masses --      1.2954                 1.2400                 1.3000
 Frc consts  --      1.3570                 1.3162                 1.3961
 IR Inten    --     15.0225                 0.7997                 5.1825

                     52                     53                     54
                      A                      A                      A
 Frequencies --   1356.9404              1367.5965              1380.9266
 Red. masses --      1.2392                 1.4468                 1.4391
 Frc consts  --      1.3443                 1.5943                 1.6169
 IR Inten    --     27.2760                 2.2549                10.5026

                     55                     56                     57
                      A                      A                      A
 Frequencies --   1384.8083              1392.4817              1405.0026
 Red. masses --      1.4863                 1.3049                 1.5222
 Frc consts  --      1.6793                 1.4908                 1.7704
 IR Inten    --      4.5337                 9.8533                24.3076

                     58                     59                     60
                      A                      A                      A
 Frequencies --   1412.7672              1419.5890              1433.8130
 Red. masses --      1.3982                 1.3588                 1.4837
 Frc consts  --      1.6442                 1.6134                 1.7971
 IR Inten    --     20.6037                16.3291                15.4108

                     61                     62                     63
                      A                      A                      A
 Frequencies --   1453.9955              1471.0569              1471.4663
 Red. masses --      1.4164                 1.1045                 1.0977
 Frc consts  --      1.7642                 1.4083                 1.4004
 IR Inten    --     39.2325                 5.7961                 6.1076

                     64                     65                     66
                      A                      A                      A
 Frequencies --   1474.4799              1486.3304              1489.2145
 Red. masses --      1.1345                 1.1353                 1.1291
 Frc consts  --      1.4532                 1.4777                 1.4753
 IR Inten    --     14.3685                13.9263                28.5818

                     67                     68                     69
                      A                      A                      A
 Frequencies --   1498.4406              1504.7705              1506.5433
 Red. masses --      1.0861                 1.0976                 1.1027
 Frc consts  --      1.4369                 1.4643                 1.4745
 IR Inten    --      1.5493                 5.4439                 9.1253

                     70                     71                     72
                      A                      A                      A
 Frequencies --   3027.7054              3033.4420              3035.1987
 Red. masses --      1.0836                 1.0698                 1.0701
 Frc consts  --      5.8523                 5.7997                 5.8081
 IR Inten    --     58.9202                26.6739                67.2475

                     73                     74                     75
                      A                      A                      A
 Frequencies --   3037.4094              3050.2384              3059.6834
 Red. masses --      1.0698                 1.0805                 1.0685
 Frc consts  --      5.8149                 5.9228                 5.8938
 IR Inten    --     77.0066                50.1853                23.5382

                     76                     77                     78
                      A                      A                      A
 Frequencies --   3062.1366              3069.1911              3070.8331
 Red. masses --      1.0651                 1.0618                 1.0612
 Frc consts  --      5.8841                 5.8930                 5.8962
 IR Inten    --     61.5274                33.5399                54.8748

                     79                     80                     81
                      A                      A                      A
 Frequencies --   3072.6887              3115.6581              3118.4697
 Red. masses --      1.0629                 1.1009                 1.0970
 Frc consts  --      5.9127                 6.2968                 6.2852
 IR Inten    --     41.2333                43.9588                39.3652

                     82                     83                     84
                      A                      A                      A
 Frequencies --   3121.4348              3125.2125              3126.2866
 Red. masses --      1.1013                 1.1019                 1.1042
 Frc consts  --      6.3220                 6.3408                 6.3588
 IR Inten    --     54.4610                51.3015                57.0707

                     85                     86                     87
                      A                      A                      A
 Frequencies --   3137.8684              3139.9809              3141.1945
 Red. masses --      1.0969                 1.0961                 1.0968
 Frc consts  --      6.3632                 6.3672                 6.3761
 IR Inten    --     38.5842                41.3939                40.2077

 - Thermochemistry -
 -------------------
 Temperature   298.150 Kelvin.  Pressure   1.00000 Atm.
 Atom     1 has atomic number  6 and mass  12.00000

 Molecular mass:   186.12559 amu.
 Principal axes and moments of inertia in atomic units:
                           1         2         3
     Eigenvalues --   833.106884853.670145367.08079
           X            0.99994  -0.00984   0.00441
           Y            0.00980   0.99992   0.00807
           Z           -0.00449  -0.00802   0.99996
 This molecule is an asymmetric top.
 Rotational symmetry number  1.
 Warning -- assumption of classical behavior for rotation
           may cause significant error
 Rotational temperatures (Kelvin)      0.10396     0.01785     0.01614
 Rotational constants (GHZ):           2.16628     0.37183     0.33626
 Zero-point vibrational energy     736802.1 (Joules/Mol)
                                  176.09993 (Kcal/Mol)
 Warning -- explicit consideration of  18 degrees of freedom as
           vibrations may cause significant error
 Vibrational temperatures:     65.68    75.49   106.63   215.75   306.88
          (Kelvin)            359.57   366.37   376.38   442.96   516.09
                              570.11   631.02   639.62   668.99   726.94
                              738.10   781.16   861.38   934.24  1190.92
                             1203.37  1240.25  1265.50  1270.60  1293.34
                             1346.93  1357.95  1382.03  1420.73  1442.75
                             1456.15  1521.84  1523.46  1564.98  1595.33
                             1612.46  1658.39  1679.92  1695.34  1704.04
                             1736.06  1742.87  1770.52  1784.22  1794.47
                             1841.54  1874.09  1893.00  1918.47  1931.10
                             1942.48  1952.33  1967.67  1986.85  1992.43
                             2003.47  2021.49  2032.66  2042.47  2062.94
                             2091.98  2116.52  2117.11  2121.45  2138.50
                             2142.65  2155.92  2165.03  2167.58  4356.19
                             4364.45  4366.97  4370.15  4388.61  4402.20
                             4405.73  4415.88  4418.24  4420.91  4482.74
                             4486.78  4491.05  4496.48  4498.03  4514.69
                             4517.73  4519.48

 Zero-point correction=                           0.280633 (Hartree/Particle)
 Thermal correction to Energy=                    0.292417
 Thermal correction to Enthalpy=                  0.293361
 Thermal correction to Gibbs Free Energy=         0.242138
 Sum of electronic and zero-point Energies=           -617.226523
 Sum of electronic and thermal Energies=              -617.214739
 Sum of electronic and thermal Enthalpies=            -617.213795
 Sum of electronic and thermal Free Energies=         -617.265018

                     E (Thermal)             CV                S
                      KCal/Mol        Cal/Mol-Kelvin    Cal/Mol-Kelvin
 Total                  183.494             46.802            107.808
 Electronic               0.000              0.000              0.000
 Translational            0.889              2.981             41.570
 Rotational               0.889              2.981             31.451
 Vibrational            181.717             40.841             34.787
 Vibration     1          0.595              1.979              4.997
 Vibration     2          0.596              1.977              4.722
 Vibration     3          0.599              1.966              4.041
 Vibration     4          0.618              1.903              2.673
 Vibration     5          0.644              1.821              2.015
 Vibration     6          0.663              1.763              1.731
 Vibration     7          0.665              1.755              1.698
 Vibration     8          0.669              1.743              1.651
 Vibration     9          0.698              1.659              1.374
 Vibration    10          0.734              1.557              1.128
 Vibration    11          0.763              1.478              0.977
 Vibration    12          0.799              1.386              0.831
 Vibration    13          0.804              1.373              0.812
 Vibration    14          0.822              1.328              0.752
 Vibration    15          0.861              1.238              0.645
 Vibration    16          0.868              1.221              0.626
 Vibration    17          0.898              1.155              0.559
 Vibration    18          0.957              1.035              0.452

 Optimization completed.
    -- Stationary point found.
 Normal termination of Gaussian 16 at Sun Mar 10 10:40:13 2019.
