 Gaussian 16, Revision B.01,
 Gaussian 16:  ES64L-G16RevB.01 20-Dec-2017

 ----------------------------------------------------------------------
 #M062X/6-311++G(2d,2p) opt=ModRedundant freq=noraman SCRF=(SMD,solvent
 =water)
 ----------------------------------------------------------------------

 -------------------------------
 4c1_b1_4e_4c1_PHI.inp_extract_3
 -------------------------------
 Symbolic Z-matrix:
 Charge =  0 Multiplicity = 1

 SCF Done:  E(RM062X) =  -617.502813953     A.U. after   12 cycles
 SCF Done:  E(RM062X) =  -617.504404330     A.U. after   10 cycles
 SCF Done:  E(RM062X) =  -617.504559003     A.U. after    9 cycles
 SCF Done:  E(RM062X) =  -617.504601455     A.U. after    9 cycles
 SCF Done:  E(RM062X) =  -617.504606747     A.U. after    8 cycles
 SCF Done:  E(RM062X) =  -617.504607312     A.U. after    7 cycles
 Optimization completed.
    -- Stationary point found.
 Normal termination of Gaussian 16 at Sun Mar 10 06:39:09 2019.

 ----------------------------------------------------------------------
 #N Geom=AllCheck Guess=TCheck SCRF=Check GenChk RM062X/6-311++G(2d,2p)
  Freq
 ----------------------------------------------------------------------

 Structure from the checkpoint file:  "4c1_b1_4e_4c1_PHI.inp_extract_3.chk"
 -------------------------------
 4c1_b1_4e_4c1_PHI.inp_extract_3
 -------------------------------
 Charge =  0 Multiplicity = 1

                         Standard orientation:
 ---------------------------------------------------------------------
 Center     Atomic      Atomic             Coordinates (Angstroms)
 Number     Number       Type             X           Y           Z
 ---------------------------------------------------------------------
      1          6           0       -3.722765   -0.714834    0.157644
      2          6           0        2.214426   -1.260650   -0.389454
      3          6           0        2.924942    1.390809    0.397911
      4          8           0        3.412292   -0.643916   -0.835205
      5          8           0       -1.340424    0.845551   -0.219740
      6          6           0       -2.575240    1.284239   -0.793029
      7          8           0       -0.016861   -0.956405    0.319744
      8          6           0       -3.758414    0.806557    0.029917
      9          6           0        1.586919    0.807532    0.852403
     10          6           0       -1.267166   -0.568514   -0.186809
     11          6           0        3.919470    0.276053    0.131603
     12          6           0        1.118044   -0.229134   -0.155801
     13          6           0       -2.356505   -1.162188    0.677225
     14          1           0       -4.511250   -1.068109    0.820546
     15          1           0       -3.899070   -1.162539   -0.823829
     16          1           0        2.400457   -1.807260    0.542851
     17          1           0        1.911430   -1.967958   -1.159168
     18          1           0        2.788137    1.969972   -0.518044
     19          1           0        3.328902    2.061684    1.156200
     20          1           0       -2.646323    0.903116   -1.817778
     21          1           0       -2.518805    2.369544   -0.830405
     22          1           0       -3.708723    1.265159    1.020047
     23          1           0       -4.681517    1.138469   -0.445927
     24          1           0        1.713047    0.306770    1.816539
     25          1           0        0.837495    1.587382    0.974056
     26          1           0       -1.362034   -0.921111   -1.225157
     27          1           0        4.852132    0.660533   -0.275559
     28          1           0        4.138154   -0.267416    1.057744
     29          1           0        0.881214    0.247914   -1.109456
     30          1           0       -2.201933   -0.809229    1.699412
     31          1           0       -2.263647   -2.247987    0.669882
 ---------------------------------------------------------------------

 SCF Done:  E(RM062X) =  -617.504607312     A.U. after    1 cycles

 The electronic state is 1-A.
 Alpha  occ. eigenvalues --  -19.63551 -19.63131 -19.63081 -10.63422 -10.58256
 Alpha  occ. eigenvalues --  -10.57606 -10.57458 -10.57369 -10.52581 -10.52486
 Alpha  occ. eigenvalues --  -10.52470 -10.52286 -10.52282  -1.20060  -1.16314
 Alpha  occ. eigenvalues --   -1.13649  -0.90678  -0.89354  -0.86874  -0.83590
 Alpha  occ. eigenvalues --   -0.74421  -0.73665  -0.72215  -0.69480  -0.65784
 Alpha  occ. eigenvalues --   -0.64491  -0.59919  -0.57829  -0.56877  -0.54999
 Alpha  occ. eigenvalues --   -0.54431  -0.52372  -0.51572  -0.50640  -0.50000
 Alpha  occ. eigenvalues --   -0.47935  -0.46381  -0.45842  -0.45350  -0.44198
 Alpha  occ. eigenvalues --   -0.43056  -0.40591  -0.40127  -0.39752  -0.39464
 Alpha  occ. eigenvalues --   -0.38996  -0.37727  -0.37014  -0.35153  -0.32694
 Alpha  occ. eigenvalues --   -0.31528
 Alpha virt. eigenvalues --    0.00511   0.01295   0.01315   0.01455   0.02606
 Alpha virt. eigenvalues --    0.02887   0.03043   0.03989   0.04125   0.04697
 Alpha virt. eigenvalues --    0.04939   0.05265   0.05932   0.06145   0.07216

 Mulliken charges:
               1
     1  C   -0.435510
     2  C   -0.276998
     3  C   -0.346770
     4  O   -0.382482
     5  O   -0.366015
     6  C   -0.217375
     7  O   -0.354769
     8  C   -0.273060
     9  C   -0.276603
    10  C   -0.181680
    11  C   -0.198378
    12  C   -0.039962
    13  C   -0.135797
    14  H    0.198073
    15  H    0.178777
    16  H    0.200578
    17  H    0.205141
    18  H    0.167397
    19  H    0.182867
    20  H    0.163829
    21  H    0.200269
    22  H    0.157941
    23  H    0.178261
    24  H    0.209352
    25  H    0.187308
    26  H    0.249713
    27  H    0.214369
    28  H    0.153895
    29  H    0.262422
    30  H    0.189658
    31  H    0.185550
 Sum of Mulliken charges =  -0.00000

 Dipole moment (field-independent basis, Debye):
    X=             -3.0465    Y=              1.1623    Z=              0.0904  Tot=              3.2619
 Quadrupole moment (field-independent basis, Debye-Ang):
   XX=            -71.3408   YY=            -79.2434   ZZ=            -80.4102
   XY=              4.4648   XZ=              9.1712   YZ=             -0.3033

  Exact polarizability: 185.793   1.355 174.213   2.244  -0.941 168.522
 Approx polarizability: 146.927   1.144 143.628   1.873  -0.656 142.089

                      1                      2                      3
                      A                      A                      A
 Frequencies --     36.1345                58.4659                78.2903
 Red. masses --      3.9856                 3.4612                 3.7377
 Frc consts  --      0.0031                 0.0070                 0.0135
 IR Inten    --      4.3934                 2.2931                 1.1455

                      4                      5                      6
                      A                      A                      A
 Frequencies --    152.2849               198.2160               247.5681
 Red. masses --      3.1829                 3.0743                 2.2164
 Frc consts  --      0.0435                 0.0712                 0.0800
 IR Inten    --      1.4333                 1.0990                 3.9536

                      7                      8                      9
                      A                      A                      A
 Frequencies --    248.9379               274.4314               310.0906
 Red. masses --      2.2376                 3.5175                 3.8382
 Frc consts  --      0.0817                 0.1561                 0.2174
 IR Inten    --      8.1282                 0.9074                21.5105

                     10                     11                     12
                      A                      A                      A
 Frequencies --    354.8346               379.8142               435.9934
 Red. masses --      1.9696                 2.3757                 3.0982
 Frc consts  --      0.1461                 0.2019                 0.3470
 IR Inten    --      3.5445                 7.5157                 7.9942

                     13                     14                     15
                      A                      A                      A
 Frequencies --    449.4300               466.7396               495.3668
 Red. masses --      3.3577                 3.1378                 2.5178
 Frc consts  --      0.3996                 0.4027                 0.3640
 IR Inten    --      3.6065                 1.5400                 1.0221

                     16                     17                     18
                      A                      A                      A
 Frequencies --    513.5283               547.4024               607.5211
 Red. masses --      3.0462                 2.0394                 2.4121
 Frc consts  --      0.4733                 0.3601                 0.5245
 IR Inten    --      7.2254                13.6037                13.5131

                     19                     20                     21
                      A                      A                      A
 Frequencies --    643.9179               831.1214               837.0478
 Red. masses --      2.9668                 2.1827                 1.8217
 Frc consts  --      0.7248                 0.8883                 0.7520
 IR Inten    --      0.8278                 0.5575                 4.2683

                     22                     23                     24
                      A                      A                      A
 Frequencies --    859.6201               877.7735               882.1021
 Red. masses --      1.8013                 1.3964                 1.9900
 Frc consts  --      0.7842                 0.6339                 0.9123
 IR Inten    --     17.1344                15.3493                 7.5355

                     25                     26                     27
                      A                      A                      A
 Frequencies --    899.4743               940.1998               942.5884
 Red. masses --      2.3638                 2.2267                 2.2478
 Frc consts  --      1.1268                 1.1597                 1.1767
 IR Inten    --     14.7331                35.7221                57.9967

                     28                     29                     30
                      A                      A                      A
 Frequencies --    959.5437               983.0170               996.1963
 Red. masses --      2.0529                 2.1271                 1.3862
 Frc consts  --      1.1136                 1.2111                 0.8105
 IR Inten    --      8.6473                50.9739                 0.9765

                     31                     32                     33
                      A                      A                      A
 Frequencies --   1009.1239              1055.1116              1061.4393
 Red. masses --      2.1239                 1.7128                 1.5170
 Frc consts  --      1.2743                 1.1234                 1.0070
 IR Inten    --     12.0876                19.5320                52.6777

                     34                     35                     36
                      A                      A                      A
 Frequencies --   1082.5171              1104.6033              1143.2537
 Red. masses --      3.0445                 3.1664                 3.0020
 Frc consts  --      2.1020                 2.2763                 2.3118
 IR Inten    --     27.9579               181.1272               140.0317

                     37                     38                     39
                      A                      A                      A
 Frequencies --   1153.2212              1159.9684              1168.4656
 Red. masses --      2.2878                 2.7328                 2.3050
 Frc consts  --      1.7927                 2.1664                 1.8542
 IR Inten    --     32.1565               122.8257                27.1124

                     40                     41                     42
                      A                      A                      A
 Frequencies --   1183.7650              1202.7725              1211.2037
 Red. masses --      2.2324                 1.5165                 1.5258
 Frc consts  --      1.8431                 1.2926                 1.3188
 IR Inten    --      3.6189                12.6603                66.0694

                     43                     44                     45
                      A                      A                      A
 Frequencies --   1241.0234              1245.6208              1257.6534
 Red. masses --      1.8673                 1.7291                 2.5417
 Frc consts  --      1.6945                 1.5807                 2.3686
 IR Inten    --     33.2107                79.2898               313.5415

                     46                     47                     48
                      A                      A                      A
 Frequencies --   1279.2727              1303.6944              1316.4642
 Red. masses --      1.2309                 1.2167                 1.2129
 Frc consts  --      1.1869                 1.2184                 1.2385
 IR Inten    --     12.6721                38.9277                39.1315

                     49                     50                     51
                      A                      A                      A
 Frequencies --   1329.9659              1339.6835              1343.8170
 Red. masses --      1.3300                 1.2669                 1.2657
 Frc consts  --      1.3861                 1.3397                 1.3467
 IR Inten    --      8.9603                 4.5440                 7.6557

                     52                     53                     54
                      A                      A                      A
 Frequencies --   1359.7398              1368.6301              1381.4935
 Red. masses --      1.2764                 1.4541                 1.4487
 Frc consts  --      1.3905                 1.6048                 1.6290
 IR Inten    --     25.7632                 6.9637                 6.4740

                     55                     56                     57
                      A                      A                      A
 Frequencies --   1383.7449              1391.2204              1406.6310
 Red. masses --      1.5186                 1.5018                 1.2868
 Frc consts  --      1.7132                 1.7126                 1.5001
 IR Inten    --      4.1929                30.9091                22.2201

                     58                     59                     60
                      A                      A                      A
 Frequencies --   1412.3753              1426.6325              1433.3663
 Red. masses --      1.4392                 1.4032                 1.3467
 Frc consts  --      1.6915                 1.6827                 1.6301
 IR Inten    --     37.3198                19.8793                26.4362

                     61                     62                     63
                      A                      A                      A
 Frequencies --   1445.8733              1469.4467              1471.3118
 Red. masses --      1.5223                 1.1106                 1.0942
 Frc consts  --      1.8751                 1.4129                 1.3955
 IR Inten    --     26.3935                 4.6964                 9.4432

                     64                     65                     66
                      A                      A                      A
 Frequencies --   1474.7231              1490.0167              1490.9918
 Red. masses --      1.1117                 1.1188                 1.1321
 Frc consts  --      1.4245                 1.4635                 1.4828
 IR Inten    --      9.4399                15.8905                26.0238

                     67                     68                     69
                      A                      A                      A
 Frequencies --   1497.0274              1505.3577              1505.9965
 Red. masses --      1.0882                 1.1028                 1.0987
 Frc consts  --      1.4368                 1.4724                 1.4682
 IR Inten    --      1.4333                 7.1955                 9.4987

                     70                     71                     72
                      A                      A                      A
 Frequencies --   2991.3378              3031.0820              3034.9683
 Red. masses --      1.0819                 1.0684                 1.0698
 Frc consts  --      5.7037                 5.7831                 5.8060
 IR Inten    --    113.8646                54.0698                80.4428

                     73                     74                     75
                      A                      A                      A
 Frequencies --   3039.9686              3060.8036              3062.3451
 Red. masses --      1.0700                 1.0688                 1.0686
 Frc consts  --      5.8261                 5.8994                 5.9041
 IR Inten    --     69.9879                14.5072                23.2496

                     76                     77                     78
                      A                      A                      A
 Frequencies --   3070.2391              3071.7237              3074.2447
 Red. masses --      1.0616                 1.0627                 1.0614
 Frc consts  --      5.8960                 5.9077                 5.9101
 IR Inten    --     43.2006                37.1251                45.6986

                     79                     80                     81
                      A                      A                      A
 Frequencies --   3085.1230              3119.9172              3122.7124
 Red. masses --      1.0826                 1.0981                 1.1005
 Frc consts  --      6.0709                 6.2975                 6.3230
 IR Inten    --     60.9116                40.9055                46.5452

                     82                     83                     84
                      A                      A                      A
 Frequencies --   3123.5056              3130.8753              3135.8116
 Red. masses --      1.1006                 1.1038                 1.0971
 Frc consts  --      6.3264                 6.3749                 6.3563
 IR Inten    --     56.9460                48.7834                40.8284

                     85                     86                     87
                      A                      A                      A
 Frequencies --   3137.2508              3139.8289              3143.8344
 Red. masses --      1.0966                 1.0974                 1.0961
 Frc consts  --      6.3592                 6.3740                 6.3828
 IR Inten    --     43.3441                41.3882                37.9255

 - Thermochemistry -
 -------------------
 Temperature   298.150 Kelvin.  Pressure   1.00000 Atm.
 Atom     1 has atomic number  6 and mass  12.00000

 Molecular mass:   186.12559 amu.
 Principal axes and moments of inertia in atomic units:
                           1         2         3
     Eigenvalues --   846.078804785.720685191.01619
           X            0.99995   0.00672   0.00696
           Y           -0.00670   0.99997  -0.00350
           Z           -0.00698   0.00345   0.99997
 This molecule is an asymmetric top.
 Rotational symmetry number  1.
 Warning -- assumption of classical behavior for rotation
           may cause significant error
 Rotational temperatures (Kelvin)      0.10237     0.01810     0.01669
 Rotational constants (GHZ):           2.13307     0.37711     0.34767
 Zero-point vibrational energy     736842.5 (Joules/Mol)
                                  176.10958 (Kcal/Mol)
 Warning -- explicit consideration of  18 degrees of freedom as
           vibrations may cause significant error
 Vibrational temperatures:     51.99    84.12   112.64   219.10   285.19
          (Kelvin)            356.20   358.17   394.85   446.15   510.53
                              546.47   627.30   646.63   671.53   712.72
                              738.85   787.59   874.09   926.45  1195.80
                             1204.33  1236.80  1262.92  1269.15  1294.14
                             1352.74  1356.17  1380.57  1414.34  1433.30
                             1451.90  1518.07  1527.17  1557.50  1589.28
                             1644.89  1659.23  1668.94  1681.16  1703.17
                             1730.52  1742.65  1785.56  1792.17  1809.48
                             1840.59  1875.73  1894.10  1913.52  1927.51
                             1933.45  1956.36  1969.15  1987.66  1990.90
                             2001.66  2023.83  2032.09  2052.61  2062.29
                             2080.29  2114.21  2116.89  2121.80  2143.80
                             2145.20  2153.89  2165.87  2166.79  4303.87
                             4361.05  4366.64  4373.84  4403.81  4406.03
                             4417.39  4419.53  4423.15  4438.80  4488.87
                             4492.89  4494.03  4504.63  4511.73  4513.80
                             4517.51  4523.28

 Zero-point correction=                           0.280648 (Hartree/Particle)
 Thermal correction to Energy=                    0.292463
 Thermal correction to Enthalpy=                  0.293407
 Thermal correction to Gibbs Free Energy=         0.242063
 Sum of electronic and zero-point Energies=           -617.223959
 Sum of electronic and thermal Energies=              -617.212145
 Sum of electronic and thermal Enthalpies=            -617.211201
 Sum of electronic and thermal Free Energies=         -617.262545

                     E (Thermal)             CV                S
                      KCal/Mol        Cal/Mol-Kelvin    Cal/Mol-Kelvin
 Total                  183.523             46.850            108.063
 Electronic               0.000              0.000              0.000
 Translational            0.889              2.981             41.570
 Rotational               0.889              2.981             31.420
 Vibrational            181.746             40.889             35.074
 Vibration     1          0.594              1.982              5.460
 Vibration     2          0.596              1.974              4.508
 Vibration     3          0.600              1.964              3.933
 Vibration     4          0.619              1.900              2.643
 Vibration     5          0.637              1.842              2.150
 Vibration     6          0.661              1.767              1.748
 Vibration     7          0.662              1.765              1.738
 Vibration     8          0.677              1.721              1.568
 Vibration     9          0.699              1.654              1.362
 Vibration    10          0.731              1.565              1.145
 Vibration    11          0.750              1.513              1.040
 Vibration    12          0.796              1.392              0.839
 Vibration    13          0.808              1.362              0.797
 Vibration    14          0.824              1.324              0.747
 Vibration    15          0.851              1.260              0.670
 Vibration    16          0.869              1.220              0.625
 Vibration    17          0.903              1.145              0.550
 Vibration    18          0.966              1.016              0.437

 Optimization completed.
    -- Stationary point found.
 Normal termination of Gaussian 16 at Sun Mar 10 07:54:24 2019.
