 Gaussian 16, Revision A.03,
 Gaussian 16:  ES64L-G16RevA.03 25-Dec-2016

 ----------------------------------------------------------------------
 #M062X/6-311++G(2d,2p) opt=ModRedundant freq=noraman SCRF=(Solvent=Wat
 er)
 ----------------------------------------------------------------------

 -----------------------------
 2SO_1_e4_D_PSI.inp_extract_16
 -----------------------------
 Symbolic Z-matrix:
 Charge =  0 Multiplicity = 1

 SCF Done:  E(RM062X) =  -617.491353399     A.U. after   12 cycles
 SCF Done:  E(RM062X) =  -617.492898886     A.U. after   11 cycles
 SCF Done:  E(RM062X) =  -617.493233789     A.U. after   10 cycles
 SCF Done:  E(RM062X) =  -617.493360887     A.U. after    9 cycles
 SCF Done:  E(RM062X) =  -617.493392295     A.U. after    9 cycles
 SCF Done:  E(RM062X) =  -617.493398368     A.U. after    8 cycles
 SCF Done:  E(RM062X) =  -617.493400353     A.U. after    8 cycles
 SCF Done:  E(RM062X) =  -617.493400692     A.U. after    7 cycles
 SCF Done:  E(RM062X) =  -617.493400737     A.U. after    6 cycles
 Optimization completed.
    -- Stationary point found.
 Normal termination of Gaussian 16 at Mon Nov  5 00:46:35 2018.

 ----------------------------------------------------------------------
 #N Geom=AllCheck Guess=TCheck SCRF=Check GenChk RM062X/6-311++G(2d,2p)
  Freq
 ----------------------------------------------------------------------

 Structure from the checkpoint file:  "2SO_1_e4_D_PSI.inp_extract_16.chk"
 -----------------------------
 2SO_1_e4_D_PSI.inp_extract_16
 -----------------------------
 Charge =  0 Multiplicity = 1

                         Standard orientation:
 ---------------------------------------------------------------------
 Center     Atomic      Atomic             Coordinates (Angstroms)
 Number     Number       Type             X           Y           Z
 ---------------------------------------------------------------------
      1          6           0       -1.210378    0.661523   -0.337057
      2          6           0        3.643437   -0.648783    0.710699
      3          6           0        1.182290    0.289945   -0.642690
      4          6           0        2.190345   -0.922703    1.111561
      5          6           0        3.672521    0.248318   -0.537532
      6          6           0       -1.473831   -0.761153   -0.817873
      7          6           0       -1.995883    0.922295    0.941964
      8          6           0       -3.687934   -0.584948    0.337094
      9          8           0       -3.383559    0.744177    0.741268
     10          6           0       -2.986939   -0.940042   -0.963913
     11          8           0        0.141141    1.010600   -0.037728
     12          6           0        2.441044    1.148746   -0.543302
     13          8           0        1.361208   -0.976780   -0.046164
     14          1           0       -1.572131    1.353162   -1.106966
     15          1           0        4.165846   -1.584456    0.515731
     16          1           0        4.150827   -0.159365    1.543189
     17          1           0        0.943283    0.077921   -1.685847
     18          1           0        2.082374   -1.880857    1.613371
     19          1           0        1.816552   -0.148394    1.785725
     20          1           0        3.663492   -0.369204   -1.436978
     21          1           0        4.584510    0.841431   -0.566967
     22          1           0       -0.974618   -0.961893   -1.764610
     23          1           0       -1.086038   -1.468482   -0.083496
     24          1           0       -1.846265    1.948137    1.273288
     25          1           0       -1.631011    0.242515    1.722989
     26          1           0       -3.383776   -1.280374    1.128945
     27          1           0       -4.769717   -0.631997    0.232779
     28          1           0       -3.221935   -1.969723   -1.233580
     29          1           0       -3.367368   -0.295707   -1.759439
     30          1           0        2.395543    1.729189    0.380533
     31          1           0        2.452079    1.854931   -1.371383
 ---------------------------------------------------------------------

 SCF Done:  E(RM062X) =  -617.493400737     A.U. after    1 cycles

 The electronic state is 1-A.
 Alpha  occ. eigenvalues --  -19.63256 -19.63155 -19.62816 -10.63576 -10.58824
 Alpha  occ. eigenvalues --  -10.58058 -10.58043 -10.57821 -10.53309 -10.53189
 Alpha  occ. eigenvalues --  -10.53183 -10.53143 -10.52870  -1.19803  -1.16701
 Alpha  occ. eigenvalues --   -1.13556  -0.90892  -0.89667  -0.87435  -0.84180
 Alpha  occ. eigenvalues --   -0.75332  -0.74606  -0.72700  -0.70114  -0.65912
 Alpha  occ. eigenvalues --   -0.62293  -0.60555  -0.59113  -0.57219  -0.56870
 Alpha  occ. eigenvalues --   -0.55447  -0.53041  -0.51732  -0.50484  -0.49362
 Alpha  occ. eigenvalues --   -0.47888  -0.46474  -0.46024  -0.45378  -0.44706
 Alpha  occ. eigenvalues --   -0.43998  -0.43432  -0.40884  -0.40536  -0.39210
 Alpha  occ. eigenvalues --   -0.38254  -0.37300  -0.35933  -0.34844  -0.33734
 Alpha  occ. eigenvalues --   -0.32372
 Alpha virt. eigenvalues --   -0.00096   0.00782   0.00825   0.00994   0.02165
 Alpha virt. eigenvalues --    0.02408   0.02589   0.03335   0.03650   0.04243
 Alpha virt. eigenvalues --    0.04585   0.05071   0.05580   0.05760   0.07006

 Mulliken charges:
               1
     1  C   -0.017568
     2  C   -0.511589
     3  C   -0.153798
     4  C   -0.018963
     5  C   -0.208350
     6  C   -0.302175
     7  C   -0.184724
     8  C   -0.178549
     9  O   -0.348478
    10  C   -0.478243
    11  O   -0.306343
    12  C   -0.421227
    13  O   -0.260248
    14  H    0.250281
    15  H    0.158738
    16  H    0.151374
    17  H    0.251507
    18  H    0.202440
    19  H    0.140903
    20  H    0.157484
    21  H    0.196897
    22  H    0.178425
    23  H    0.255839
    24  H    0.195701
    25  H    0.185606
    26  H    0.138057
    27  H    0.208757
    28  H    0.169299
    29  H    0.172399
    30  H    0.200222
    31  H    0.176327
 Sum of Mulliken charges =  -0.00000

 Dipole moment (field-independent basis, Debye):
    X=              1.9409    Y=             -1.3655    Z=             -0.8851  Tot=              2.5328
 Quadrupole moment (field-independent basis, Debye-Ang):
   XX=            -78.2070   YY=            -82.3911   ZZ=            -77.1783
   XY=              7.6564   XZ=              4.5807   YZ=             -2.4947

  Exact polarizability: 177.062   1.032 154.563   2.544  -1.621 154.424
 Approx polarizability: 147.014  -0.487 143.350   2.685  -0.335 141.916

 ******    1 imaginary frequencies (negative Signs) ******

                      1                      2                      3
                      A                      A                      A
 Frequencies --    -56.9279                54.6327                86.9020
 Red. masses --      3.6898                 3.9794                 3.2800
 Frc consts  --      0.0070                 0.0070                 0.0146
 IR Inten    --      0.8216                 1.5426                 4.5129

                      4                      5                      6
                      A                      A                      A
 Frequencies --    135.2890               161.5968               223.6614
 Red. masses --      3.1049                 2.4652                 2.0762
 Frc consts  --      0.0335                 0.0379                 0.0612
 IR Inten    --      0.2451                 1.2842                 4.4062

                      7                      8                      9
                      A                      A                      A
 Frequencies --    248.7044               270.3476               281.5812
 Red. masses --      2.0627                 3.8559                 3.1933
 Frc consts  --      0.0752                 0.1660                 0.1492
 IR Inten    --      5.3113                 0.5053                 3.9231

                     10                     11                     12
                      A                      A                      A
 Frequencies --    356.4007               375.6626               438.1190
 Red. masses --      2.5845                 2.6209                 3.4725
 Frc consts  --      0.1934                 0.2179                 0.3927
 IR Inten    --      5.7395                21.2582                 1.2490

                     13                     14                     15
                      A                      A                      A
 Frequencies --    456.7322               459.9285               499.2607
 Red. masses --      2.5259                 3.0026                 3.0329
 Frc consts  --      0.3104                 0.3742                 0.4454
 IR Inten    --      5.8683                 3.1471                 1.9671

                     16                     17                     18
                      A                      A                      A
 Frequencies --    548.8648               614.4166               632.1785
 Red. masses --      2.6409                 4.9998                 2.0182
 Frc consts  --      0.4687                 1.1121                 0.4752
 IR Inten    --      6.3834                11.1481                 9.7527

                     19                     20                     21
                      A                      A                      A
 Frequencies --    649.8429               782.7174               825.0681
 Red. masses --      3.1761                 1.2942                 2.1524
 Frc consts  --      0.7902                 0.4672                 0.8633
 IR Inten    --      7.4570                 4.6150                 1.4232

                     22                     23                     24
                      A                      A                      A
 Frequencies --    843.8807               875.4337               892.4467
 Red. masses --      2.6248                 1.4080                 2.6360
 Frc consts  --      1.1013                 0.6358                 1.2370
 IR Inten    --     12.9952                13.1780                18.5823

                     25                     26                     27
                      A                      A                      A
 Frequencies --    899.3078               921.5736               947.1184
 Red. masses --      2.4483                 2.1142                 2.1894
 Frc consts  --      1.1666                 1.0579                 1.1572
 IR Inten    --      3.5012                33.2296                30.4367

                     28                     29                     30
                      A                      A                      A
 Frequencies --    970.9962               980.9796               994.5604
 Red. masses --      1.8737                 2.2982                 1.6558
 Frc consts  --      1.0408                 1.3031                 0.9650
 IR Inten    --     13.2939                 9.7006                 4.9945

                     31                     32                     33
                      A                      A                      A
 Frequencies --   1008.1585              1056.2044              1061.0855
 Red. masses --      1.8931                 3.5742                 1.7212
 Frc consts  --      1.1337                 2.3492                 1.1418
 IR Inten    --      5.1286               189.6074                26.6880

                     34                     35                     36
                      A                      A                      A
 Frequencies --   1074.9688              1084.4128              1118.3712
 Red. masses --      1.7711                 2.2693                 4.3906
 Frc consts  --      1.2058                 1.5723                 3.2355
 IR Inten    --    106.4947                11.1012               274.5197

                     37                     38                     39
                      A                      A                      A
 Frequencies --   1149.9724              1156.1700              1163.7578
 Red. masses --      2.6439                 2.7685                 3.7224
 Frc consts  --      2.0600                 2.1804                 2.9703
 IR Inten    --     30.8654                75.9583               291.3421

                     40                     41                     42
                      A                      A                      A
 Frequencies --   1174.5322              1187.3602              1210.2003
 Red. masses --      2.2734                 2.2615                 1.4836
 Frc consts  --      1.8478                 1.8785                 1.2802
 IR Inten    --      4.7721                18.1688                93.7774

                     43                     44                     45
                      A                      A                      A
 Frequencies --   1220.8294              1244.6868              1253.0765
 Red. masses --      1.5774                 1.6407                 1.4700
 Frc consts  --      1.3852                 1.4976                 1.3600
 IR Inten    --      8.5878                49.4963                 7.5459

                     46                     47                     48
                      A                      A                      A
 Frequencies --   1289.6084              1299.3880              1308.8163
 Red. masses --      1.2063                 1.1691                 1.1725
 Frc consts  --      1.1820                 1.1630                 1.1834
 IR Inten    --      3.1109                 9.2970                 9.1147

                     49                     50                     51
                      A                      A                      A
 Frequencies --   1327.7016              1341.5703              1351.6098
 Red. masses --      1.2743                 1.2444                 1.2138
 Frc consts  --      1.3235                 1.3196                 1.3065
 IR Inten    --      6.1269                 0.5603                 7.5486

                     52                     53                     54
                      A                      A                      A
 Frequencies --   1355.1928              1366.1103              1371.1321
 Red. masses --      1.3137                 1.4240                 1.3839
 Frc consts  --      1.4215                 1.5657                 1.5329
 IR Inten    --      8.1395                 1.7121                 0.7540

                     55                     56                     57
                      A                      A                      A
 Frequencies --   1382.6436              1400.0761              1407.7135
 Red. masses --      1.4488                 1.2511                 1.4221
 Frc consts  --      1.6318                 1.4450                 1.6603
 IR Inten    --     13.2596                15.0853                 8.8476

                     58                     59                     60
                      A                      A                      A
 Frequencies --   1414.1858              1418.1617              1429.7495
 Red. masses --      1.4184                 1.3991                 1.3370
 Frc consts  --      1.6713                 1.6579                 1.6103
 IR Inten    --      9.6264                13.3774                23.7155

                     61                     62                     63
                      A                      A                      A
 Frequencies --   1432.3149              1481.4284              1486.8058
 Red. masses --      1.5091                 1.0933                 1.0789
 Frc consts  --      1.8241                 1.4137                 1.4052
 IR Inten    --     15.0230                 8.9139                 2.5240

                     64                     65                     66
                      A                      A                      A
 Frequencies --   1493.3594              1494.4141              1500.5851
 Red. masses --      1.1120                 1.0957                 1.0872
 Frc consts  --      1.4611                 1.4417                 1.4424
 IR Inten    --     12.4715                 6.3362                 0.8140

                     67                     68                     69
                      A                      A                      A
 Frequencies --   1503.0764              1513.2127              1524.6485
 Red. masses --      1.0983                 1.1020                 1.0866
 Frc consts  --      1.4620                 1.4868                 1.4882
 IR Inten    --     10.2677                 7.9082                 3.6380

                     70                     71                     72
                      A                      A                      A
 Frequencies --   3011.3797              3020.9545              3025.4479
 Red. masses --      1.0715                 1.0706                 1.0807
 Frc consts  --      5.7252                 5.7564                 5.8285
 IR Inten    --     15.2905                80.1223               119.1447

                     73                     74                     75
                      A                      A                      A
 Frequencies --   3061.6526              3069.2292              3074.5053
 Red. masses --      1.0690                 1.0632                 1.0675
 Frc consts  --      5.9040                 5.9008                 5.9450
 IR Inten    --     41.4357                36.4210                14.2215

                     76                     77                     78
                      A                      A                      A
 Frequencies --   3078.7084              3081.8342              3083.1834
 Red. masses --      1.0621                 1.0654                 1.0645
 Frc consts  --      5.9313                 5.9616                 5.9621
 IR Inten    --     47.3008                50.9973                14.3944

                     79                     80                     81
                      A                      A                      A
 Frequencies --   3092.2511              3117.6443              3119.1596
 Red. masses --      1.0800                 1.0990                 1.0999
 Frc consts  --      6.0843                 6.2938                 6.3046
 IR Inten    --     28.9873                32.3582                44.2749

                     82                     83                     84
                      A                      A                      A
 Frequencies --   3132.0926              3132.4170              3133.7315
 Red. masses --      1.1014                 1.0942                 1.0990
 Frc consts  --      6.3661                 6.3259                 6.3588
 IR Inten    --     39.1830                50.2015                27.5551

                     85                     86                     87
                      A                      A                      A
 Frequencies --   3135.1194              3136.8999              3144.2772
 Red. masses --      1.0983                 1.1016                 1.1002
 Frc consts  --      6.3602                 6.3867                 6.4083
 IR Inten    --     28.3963                87.4407                45.6904

 - Thermochemistry -
 -------------------
 Temperature   298.150 Kelvin.  Pressure   1.00000 Atm.
 Atom     1 has atomic number  6 and mass  12.00000

 Molecular mass:   186.12559 amu.
 Principal axes and moments of inertia in atomic units:
                           1         2         3
     Eigenvalues --   870.169594656.256914776.92123
           X            0.99993   0.01044   0.00548
           Y           -0.01015   0.99874  -0.04906
           Z           -0.00598   0.04901   0.99878
 This molecule is an asymmetric top.
 Rotational symmetry number  1.
 Warning -- assumption of classical behavior for rotation
           may cause significant error
 Rotational temperatures (Kelvin)      0.09954     0.01860     0.01813
 Rotational constants (GHZ):           2.07401     0.38759     0.37780
    1 imaginary frequencies ignored.
 Zero-point vibrational energy     736516.7 (Joules/Mol)
                                  176.03173 (Kcal/Mol)
 Warning -- explicit consideration of  16 degrees of freedom as
           vibrations may cause significant error
 Vibrational temperatures:     78.60   125.03   194.65   232.50   321.80
          (Kelvin)            357.83   388.97   405.13   512.78   540.49
                              630.36   657.14   661.73   718.32   789.69
                              884.01   909.56   934.98  1126.16  1187.09
                             1214.16  1259.55  1284.03  1293.90  1325.94
                             1362.69  1397.05  1411.41  1430.95  1450.52
                             1519.64  1526.67  1546.64  1560.23  1609.09
                             1654.55  1663.47  1674.39  1689.89  1708.35
                             1741.21  1756.50  1790.83  1802.90  1855.46
                             1869.53  1883.09  1910.27  1930.22  1944.67
                             1949.82  1965.53  1972.75  1989.32  2014.40
                             2025.39  2034.70  2040.42  2057.09  2060.78
                             2131.45  2139.18  2148.61  2150.13  2159.01
                             2162.59  2177.18  2193.63  4332.70  4346.48
                             4352.94  4405.04  4415.94  4423.53  4429.57
                             4434.07  4436.01  4449.06  4485.59  4487.77
                             4506.38  4506.85  4508.74  4510.74  4513.30
                             4523.91

 Zero-point correction=                           0.280524 (Hartree/Particle)
 Thermal correction to Energy=                    0.291578
 Thermal correction to Enthalpy=                  0.292522
 Thermal correction to Gibbs Free Energy=         0.243467
 Sum of electronic and zero-point Energies=           -617.212876
 Sum of electronic and thermal Energies=              -617.201822
 Sum of electronic and thermal Enthalpies=            -617.200878
 Sum of electronic and thermal Free Energies=         -617.249934

                     E (Thermal)             CV                S
                      KCal/Mol        Cal/Mol-Kelvin    Cal/Mol-Kelvin
 Total                  182.968             44.922            103.246
 Electronic               0.000              0.000              0.000
 Translational            0.889              2.981             41.570
 Rotational               0.889              2.981             31.338
 Vibrational            181.191             38.961             30.339
 Vibration     1          0.596              1.976              4.642
 Vibration     2          0.601              1.958              3.729
 Vibration     3          0.613              1.918              2.869
 Vibration     4          0.622              1.889              2.531
 Vibration     5          0.649              1.805              1.929
 Vibration     6          0.662              1.765              1.740
 Vibration     7          0.674              1.728              1.594
 Vibration     8          0.681              1.708              1.524
 Vibration     9          0.732              1.562              1.138
 Vibration    10          0.746              1.522              1.057
 Vibration    11          0.798              1.387              0.833
 Vibration    12          0.815              1.346              0.776
 Vibration    13          0.818              1.339              0.766
 Vibration    14          0.855              1.252              0.660
 Vibration    15          0.904              1.142              0.547
 Vibration    16          0.974              1.001              0.426

 Optimization completed.
    -- Stationary point found.
 Normal termination of Gaussian 16 at Mon Nov  5 01:39:31 2018.
