 Gaussian 16, Revision A.03,
 Gaussian 16:  ES64L-G16RevA.03 25-Dec-2016

 ----------------------------------------------------------------------
 #M062X/6-311++G(2d,2p) opt=ModRedundant freq=noraman SCRF=(Solvent=Wat
 er)
 ----------------------------------------------------------------------

 -----------------------------
 2SO_1_e4_D_PSI.inp_extract_10
 -----------------------------
 Symbolic Z-matrix:
 Charge =  0 Multiplicity = 1

 SCF Done:  E(RM062X) =  -617.492951254     A.U. after   12 cycles
 SCF Done:  E(RM062X) =  -617.494604817     A.U. after   11 cycles
 SCF Done:  E(RM062X) =  -617.494951118     A.U. after   11 cycles
 SCF Done:  E(RM062X) =  -617.495076189     A.U. after    9 cycles
 SCF Done:  E(RM062X) =  -617.495134135     A.U. after   10 cycles
 SCF Done:  E(RM062X) =  -617.495141479     A.U. after    9 cycles
 SCF Done:  E(RM062X) =  -617.495144147     A.U. after    8 cycles
 SCF Done:  E(RM062X) =  -617.495144339     A.U. after    7 cycles
 SCF Done:  E(RM062X) =  -617.495144398     A.U. after    6 cycles
 Optimization completed.
    -- Stationary point found.
 Normal termination of Gaussian 16 at Mon Nov  5 00:24:07 2018.

 ----------------------------------------------------------------------
 #N Geom=AllCheck Guess=TCheck SCRF=Check GenChk RM062X/6-311++G(2d,2p)
  Freq
 ----------------------------------------------------------------------

 Structure from the checkpoint file:  "2SO_1_e4_D_PSI.inp_extract_10.chk"
 -----------------------------
 2SO_1_e4_D_PSI.inp_extract_10
 -----------------------------
 Charge =  0 Multiplicity = 1

                         Standard orientation:
 ---------------------------------------------------------------------
 Center     Atomic      Atomic             Coordinates (Angstroms)
 Number     Number       Type             X           Y           Z
 ---------------------------------------------------------------------
      1          6           0       -1.224216    0.273353    0.747429
      2          6           0        3.752903   -0.647913   -0.151546
      3          6           0        1.016725    0.486306   -0.147541
      4          6           0        2.454040   -1.335553    0.282089
      5          6           0        3.451113    0.794856   -0.588784
      6          6           0       -1.924458    1.329969   -0.099620
      7          6           0       -1.492843   -1.113122    0.162476
      8          6           0       -3.583564   -0.449819   -0.677880
      9          8           0       -2.887986   -1.368407    0.154847
     10          6           0       -3.411936    0.979826   -0.188559
     11          8           0        0.159903    0.528934    0.964618
     12          6           0        2.249383    1.320446    0.190365
     13          8           0        1.357506   -0.844004   -0.483589
     14          1           0       -1.658459    0.291153    1.748965
     15          1           0        4.220186   -1.199348   -0.966374
     16          1           0        4.449900   -0.653306    0.687617
     17          1           0        0.515947    0.873147   -1.035177
     18          1           0        2.489553   -2.409343    0.117053
     19          1           0        2.255990   -1.166803    1.343242
     20          1           0        3.218859    0.817253   -1.654585
     21          1           0        4.318525    1.434489   -0.437625
     22          1           0       -1.776259    2.317055    0.338861
     23          1           0       -1.505719    1.345441   -1.108220
     24          1           0       -1.022165   -1.884092    0.769349
     25          1           0       -1.096019   -1.181754   -0.856091
     26          1           0       -3.211262   -0.542399   -1.705631
     27          1           0       -4.628462   -0.752169   -0.661420
     28          1           0       -3.928279    1.661340   -0.864737
     29          1           0       -3.875536    1.075338    0.795476
     30          1           0        2.435340    1.246632    1.263932
     31          1           0        2.039585    2.365092   -0.032213
 ---------------------------------------------------------------------

 SCF Done:  E(RM062X) =  -617.495144398     A.U. after    1 cycles

 The electronic state is 1-A.
 Alpha  occ. eigenvalues --  -19.63417 -19.63035 -19.62854 -10.63570 -10.58846
 Alpha  occ. eigenvalues --  -10.58058 -10.57837 -10.57829 -10.53375 -10.53328
 Alpha  occ. eigenvalues --  -10.53229 -10.53171 -10.52884  -1.19925  -1.16501
 Alpha  occ. eigenvalues --   -1.13643  -0.90779  -0.89790  -0.87042  -0.84420
 Alpha  occ. eigenvalues --   -0.75356  -0.73992  -0.73578  -0.70339  -0.66055
 Alpha  occ. eigenvalues --   -0.62076  -0.60746  -0.58917  -0.57766  -0.56406
 Alpha  occ. eigenvalues --   -0.54833  -0.53048  -0.52461  -0.49754  -0.49155
 Alpha  occ. eigenvalues --   -0.48489  -0.46834  -0.45971  -0.45603  -0.44330
 Alpha  occ. eigenvalues --   -0.44074  -0.42745  -0.41580  -0.40393  -0.38928
 Alpha  occ. eigenvalues --   -0.38639  -0.37925  -0.35740  -0.35565  -0.33857
 Alpha  occ. eigenvalues --   -0.31722
 Alpha virt. eigenvalues --   -0.00093   0.00697   0.00820   0.01128   0.02135
 Alpha virt. eigenvalues --    0.02440   0.02561   0.03447   0.03712   0.04229
 Alpha virt. eigenvalues --    0.04600   0.04737   0.05479   0.05968   0.07148

 Mulliken charges:
               1
     1  C   -0.337299
     2  C   -0.523233
     3  C   -0.192954
     4  C   -0.017552
     5  C   -0.173540
     6  C   -0.045424
     7  C   -0.282535
     8  C   -0.160322
     9  O   -0.354658
    10  C   -0.405349
    11  O   -0.298458
    12  C   -0.313238
    13  O   -0.268922
    14  H    0.253347
    15  H    0.162476
    16  H    0.149335
    17  H    0.264906
    18  H    0.198541
    19  H    0.149967
    20  H    0.151182
    21  H    0.196112
    22  H    0.177393
    23  H    0.180389
    24  H    0.207517
    25  H    0.223436
    26  H    0.135925
    27  H    0.217190
    28  H    0.165132
    29  H    0.175327
    30  H    0.205022
    31  H    0.160289
 Sum of Mulliken charges =  -0.00000

 Dipole moment (field-independent basis, Debye):
    X=              1.2238    Y=              2.3673    Z=             -1.2247  Tot=              2.9328
 Quadrupole moment (field-independent basis, Debye-Ang):
   XX=            -72.3675   YY=            -81.6603   ZZ=            -81.1743
   XY=             -6.7391   XZ=              4.0774   YZ=             -1.9965

  Exact polarizability: 179.142  -3.875 158.271   0.016  -1.590 147.797
 Approx polarizability: 148.611  -2.240 141.415   0.027  -1.024 142.010

                      1                      2                      3
                      A                      A                      A
 Frequencies --     19.5676                60.1674                83.5147
 Red. masses --      3.5325                 3.3351                 3.8655
 Frc consts  --      0.0008                 0.0071                 0.0159
 IR Inten    --      0.7514                 2.1444                 1.9480

                      4                      5                      6
                      A                      A                      A
 Frequencies --    128.1029               192.1323               208.6264
 Red. masses --      2.8344                 2.3550                 2.3571
 Frc consts  --      0.0274                 0.0512                 0.0604
 IR Inten    --      0.1901                 0.5868                 0.8200

                      7                      8                      9
                      A                      A                      A
 Frequencies --    254.7021               259.1360               327.0023
 Red. masses --      2.0051                 3.4534                 2.5299
 Frc consts  --      0.0766                 0.1366                 0.1594
 IR Inten    --      3.3823                 1.0526                 6.7425

                     10                     11                     12
                      A                      A                      A
 Frequencies --    337.2673               388.4614               433.4734
 Red. masses --      3.9360                 2.4965                 2.9449
 Frc consts  --      0.2638                 0.2220                 0.3260
 IR Inten    --     21.3364                10.3866                 3.4868

                     13                     14                     15
                      A                      A                      A
 Frequencies --    450.0516               478.4958               495.3125
 Red. masses --      3.5209                 3.0779                 3.3277
 Frc consts  --      0.4202                 0.4152                 0.4810
 IR Inten    --      5.7631                 3.5685                 1.0213

                     16                     17                     18
                      A                      A                      A
 Frequencies --    554.5627               617.6928               631.1537
 Red. masses --      2.0377                 5.9271                 2.0048
 Frc consts  --      0.3692                 1.3324                 0.4705
 IR Inten    --      7.0824                 7.6008                10.2621

                     19                     20                     21
                      A                      A                      A
 Frequencies --    663.3993               781.8816               825.6465
 Red. masses --      3.4903                 1.2923                 2.1512
 Frc consts  --      0.9050                 0.4655                 0.8640
 IR Inten    --      3.1523                 6.2796                 1.5166

                     22                     23                     24
                      A                      A                      A
 Frequencies --    843.9368               874.8846               889.2382
 Red. masses --      2.4862                 1.4066                 2.6603
 Frc consts  --      1.0433                 0.6344                 1.2394
 IR Inten    --      7.1071                 6.7935                 1.7374

                     25                     26                     27
                      A                      A                      A
 Frequencies --    897.2863               917.6522               945.1523
 Red. masses --      2.4391                 2.1494                 2.4165
 Frc consts  --      1.1570                 1.0664                 1.2718
 IR Inten    --     22.4680                42.7968                46.3709

                     28                     29                     30
                      A                      A                      A
 Frequencies --    968.6167               980.5612               994.8843
 Red. masses --      1.8224                 1.8781                 1.7338
 Frc consts  --      1.0074                 1.0639                 1.0111
 IR Inten    --     16.0351                15.4008                15.7290

                     31                     32                     33
                      A                      A                      A
 Frequencies --   1010.5426              1042.6899              1050.7139
 Red. masses --      2.1145                 2.8559                 1.7290
 Frc consts  --      1.2723                 1.8294                 1.1246
 IR Inten    --      6.7085               188.0237                22.5945

                     34                     35                     36
                      A                      A                      A
 Frequencies --   1073.9306              1081.7696              1118.4974
 Red. masses --      1.8246                 2.0864                 4.3829
 Frc consts  --      1.2399                 1.4385                 3.2306
 IR Inten    --    125.9941                10.8017               312.3846

                     37                     38                     39
                      A                      A                      A
 Frequencies --   1141.8177              1153.6840              1160.0609
 Red. masses --      2.9377                 3.0627                 4.0015
 Frc consts  --      2.2566                 2.4018                 3.1728
 IR Inten    --     54.5916                98.9238               158.4141

                     40                     41                     42
                      A                      A                      A
 Frequencies --   1167.2181              1191.1656              1208.7601
 Red. masses --      2.3440                 2.2008                 1.4042
 Frc consts  --      1.8815                 1.8398                 1.2088
 IR Inten    --     29.1265                30.9552                29.3209

                     43                     44                     45
                      A                      A                      A
 Frequencies --   1219.3400              1243.3654              1250.9051
 Red. masses --      1.5152                 1.6071                 1.5713
 Frc consts  --      1.3273                 1.4638                 1.4486
 IR Inten    --      7.6984                30.7077                21.9798

                     46                     47                     48
                      A                      A                      A
 Frequencies --   1290.1208              1305.7946              1310.2703
 Red. masses --      1.2016                 1.1747                 1.1945
 Frc consts  --      1.1783                 1.1801                 1.2083
 IR Inten    --      3.5335                15.8474                 9.7961

                     49                     50                     51
                      A                      A                      A
 Frequencies --   1331.2618              1341.5343              1345.2633
 Red. masses --      1.3050                 1.2673                 1.2889
 Frc consts  --      1.3627                 1.3438                 1.3743
 IR Inten    --     13.6005                 3.6346                 3.4689

                     52                     53                     54
                      A                      A                      A
 Frequencies --   1366.0040              1370.4733              1372.1899
 Red. masses --      1.4002                 1.3282                 1.3796
 Frc consts  --      1.5393                 1.4698                 1.5305
 IR Inten    --      7.4992                 5.7051                 3.0729

                     55                     56                     57
                      A                      A                      A
 Frequencies --   1382.4935              1398.6252              1402.7787
 Red. masses --      1.4328                 1.3401                 1.3021
 Frc consts  --      1.6134                 1.5445                 1.5097
 IR Inten    --      0.5274                 4.9823                 7.0998

                     58                     59                     60
                      A                      A                      A
 Frequencies --   1413.7198              1417.9204              1426.9614
 Red. masses --      1.4769                 1.4338                 1.2444
 Frc consts  --      1.7391                 1.6984                 1.4929
 IR Inten    --     24.1496                40.5650                 7.5893

                     61                     62                     63
                      A                      A                      A
 Frequencies --   1431.3820              1482.0290              1486.9273
 Red. masses --      1.3851                 1.0918                 1.0787
 Frc consts  --      1.6720                 1.4129                 1.4051
 IR Inten    --      6.8924                 6.6843                 2.4389

                     64                     65                     66
                      A                      A                      A
 Frequencies --   1492.1088              1494.2789              1499.3797
 Red. masses --      1.1006                 1.0940                 1.1026
 Frc consts  --      1.4437                 1.4392                 1.4605
 IR Inten    --      9.8161                 8.5937                 2.5432

                     67                     68                     69
                      A                      A                      A
 Frequencies --   1503.4347              1512.3728              1524.1149
 Red. masses --      1.0978                 1.1027                 1.0865
 Frc consts  --      1.4620                 1.4860                 1.4871
 IR Inten    --      9.6210                 9.3008                 3.9989

                     70                     71                     72
                      A                      A                      A
 Frequencies --   3019.5220              3042.0850              3062.0206
 Red. masses --      1.0706                 1.0674                 1.0689
 Frc consts  --      5.7510                 5.8200                 5.9047
 IR Inten    --     70.0543                41.6812                36.8769

                     73                     74                     75
                      A                      A                      A
 Frequencies --   3065.0883              3071.1726              3074.5590
 Red. masses --      1.0649                 1.0618                 1.0665
 Frc consts  --      5.8943                 5.9008                 5.9397
 IR Inten    --     15.9181                28.6528                14.2953

                     76                     77                     78
                      A                      A                      A
 Frequencies --   3078.3193              3081.6414              3082.3920
 Red. masses --      1.0626                 1.0644                 1.0819
 Frc consts  --      5.9329                 5.9553                 6.0565
 IR Inten    --     46.0040                60.9690                41.5019

                     79                     80                     81
                      A                      A                      A
 Frequencies --   3102.4166              3116.6352              3117.1646
 Red. masses --      1.0847                 1.0999                 1.0989
 Frc consts  --      6.1513                 6.2950                 6.2912
 IR Inten    --     27.0945                28.5032                32.3445

                     82                     83                     84
                      A                      A                      A
 Frequencies --   3123.3363              3131.3397              3133.8458
 Red. masses --      1.1033                 1.1017                 1.0946
 Frc consts  --      6.3413                 6.3645                 6.3339
 IR Inten    --     68.2228                43.2641                50.2068

                     85                     86                     87
                      A                      A                      A
 Frequencies --   3134.6863              3137.7817              3144.0827
 Red. masses --      1.0996                 1.0986                 1.1001
 Frc consts  --      6.3663                 6.3726                 6.4075
 IR Inten    --     52.8984                45.7579                48.4573

 - Thermochemistry -
 -------------------
 Temperature   298.150 Kelvin.  Pressure   1.00000 Atm.
 Atom     1 has atomic number  6 and mass  12.00000

 Molecular mass:   186.12559 amu.
 Principal axes and moments of inertia in atomic units:
                           1         2         3
     Eigenvalues --   888.847704368.337354846.40897
           X            0.99996  -0.00833   0.00433
           Y            0.00840   0.99981  -0.01773
           Z           -0.00418   0.01776   0.99983
 This molecule is an asymmetric top.
 Rotational symmetry number  1.
 Warning -- assumption of classical behavior for rotation
           may cause significant error
 Rotational temperatures (Kelvin)      0.09745     0.01983     0.01787
 Rotational constants (GHZ):           2.03043     0.41314     0.37239
 Zero-point vibrational energy     737118.3 (Joules/Mol)
                                  176.17550 (Kcal/Mol)
 Warning -- explicit consideration of  17 degrees of freedom as
           vibrations may cause significant error
 Vibrational temperatures:     28.15    86.57   120.16   184.31   276.44
          (Kelvin)            300.17   366.46   372.84   470.48   485.25
                              558.91   623.67   647.52   688.45   712.64
                              797.89   888.72   908.09   954.48  1124.95
                             1187.92  1214.24  1258.76  1279.42  1290.99
                             1320.30  1359.86  1393.62  1410.81  1431.42
                             1453.95  1500.20  1511.74  1545.15  1556.43
                             1609.27  1642.82  1659.89  1669.07  1679.37
                             1713.82  1739.14  1754.36  1788.93  1799.77
                             1856.20  1878.75  1885.19  1915.39  1930.17
                             1935.53  1965.38  1971.81  1974.28  1989.10
                             2012.31  2018.29  2034.03  2040.07  2053.08
                             2059.44  2132.31  2139.36  2146.81  2149.93
                             2157.27  2163.11  2175.97  2192.86  4344.42
                             4376.88  4405.56  4409.98  4418.73  4423.60
                             4429.01  4433.79  4434.87  4463.69  4484.14
                             4484.90  4493.78  4505.30  4508.91  4510.11
                             4514.57  4523.63

 Zero-point correction=                           0.280754 (Hartree/Particle)
 Thermal correction to Energy=                    0.292641
 Thermal correction to Enthalpy=                  0.293585
 Thermal correction to Gibbs Free Energy=         0.241565
 Sum of electronic and zero-point Energies=           -617.214391
 Sum of electronic and thermal Energies=              -617.202504
 Sum of electronic and thermal Enthalpies=            -617.201559
 Sum of electronic and thermal Free Energies=         -617.253580

                     E (Thermal)             CV                S
                      KCal/Mol        Cal/Mol-Kelvin    Cal/Mol-Kelvin
 Total                  183.635             46.837            109.486
 Electronic               0.000              0.000              0.000
 Translational            0.889              2.981             41.570
 Rotational               0.889              2.981             31.310
 Vibrational            181.857             40.875             36.607
 Vibration     1          0.593              1.986              6.678
 Vibration     2          0.597              1.973              4.452
 Vibration     3          0.600              1.961              3.807
 Vibration     4          0.611              1.925              2.974
 Vibration     5          0.634              1.851              2.207
 Vibration     6          0.642              1.828              2.056
 Vibration     7          0.665              1.755              1.698
 Vibration     8          0.668              1.747              1.668
 Vibration     9          0.711              1.622              1.275
 Vibration    10          0.718              1.601              1.225
 Vibration    11          0.757              1.495              1.006
 Vibration    12          0.794              1.397              0.847
 Vibration    13          0.809              1.361              0.796
 Vibration    14          0.835              1.298              0.714
 Vibration    15          0.851              1.260              0.670
 Vibration    16          0.910              1.130              0.535
 Vibration    17          0.977              0.995              0.420

 Optimization completed.
    -- Stationary point found.
 Normal termination of Gaussian 16 at Mon Nov  5 01:16:40 2018.
