 Gaussian 16, Revision A.03,
 Gaussian 16:  ES64L-G16RevA.03 25-Dec-2016

 ----------------------------------------------------------------------
 #M062X/6-311++G(2d,2p) opt=ModRedundant freq=noraman SCRF=(Solvent=Wat
 er)
 ----------------------------------------------------------------------

 -----------------------------
 2SO_1_e4_D_PSI.inp_extract_11
 -----------------------------
 Symbolic Z-matrix:
 Charge =  0 Multiplicity = 1

 SCF Done:  E(RM062X) =  -617.492410725     A.U. after   13 cycles
 SCF Done:  E(RM062X) =  -617.494020404     A.U. after   11 cycles
 SCF Done:  E(RM062X) =  -617.494509778     A.U. after   10 cycles
 SCF Done:  E(RM062X) =  -617.494767472     A.U. after   10 cycles
 SCF Done:  E(RM062X) =  -617.494946503     A.U. after   10 cycles
 SCF Done:  E(RM062X) =  -617.494968823     A.U. after   10 cycles
 SCF Done:  E(RM062X) =  -617.494978410     A.U. after    8 cycles
 SCF Done:  E(RM062X) =  -617.494979700     A.U. after    8 cycles
 SCF Done:  E(RM062X) =  -617.494980038     A.U. after    8 cycles
 Optimization completed.
    -- Stationary point found.
 Normal termination of Gaussian 16 at Mon Nov  5 00:26:08 2018.

 ----------------------------------------------------------------------
 #N Geom=AllCheck Guess=TCheck SCRF=Check GenChk RM062X/6-311++G(2d,2p)
  Freq
 ----------------------------------------------------------------------

 Structure from the checkpoint file:  "2SO_1_e4_D_PSI.inp_extract_11.chk"
 -----------------------------
 2SO_1_e4_D_PSI.inp_extract_11
 -----------------------------
 Charge =  0 Multiplicity = 1

                         Standard orientation:
 ---------------------------------------------------------------------
 Center     Atomic      Atomic             Coordinates (Angstroms)
 Number     Number       Type             X           Y           Z
 ---------------------------------------------------------------------
      1          6           0        1.182739   -0.453532    0.701046
      2          6           0       -3.509119    0.964598   -0.234872
      3          6           0       -1.092595   -0.737246   -0.105719
      4          6           0       -2.056807    1.410166   -0.030924
      5          6           0       -3.563891   -0.565441   -0.374910
      6          6           0        1.807954   -1.251005   -0.435349
      7          6           0        1.456687    1.037357    0.501067
      8          6           0        3.495767    0.595191   -0.569836
      9          8           0        2.858903    1.259297    0.514365
     10          6           0        3.300014   -0.912155   -0.493769
     11          8           0       -0.184713   -0.750743    0.967027
     12          6           0       -2.441909   -1.193198    0.447151
     13          8           0       -1.174582    0.527966   -0.721107
     14          1           0        1.690433   -0.736082    1.626579
     15          1           0       -3.931602    1.439534   -1.119350
     16          1           0       -4.099781    1.288814    0.622992
     17          1           0       -0.751442   -1.405970   -0.897386
     18          1           0       -1.875032    2.404690   -0.430394
     19          1           0       -1.794680    1.421693    1.029828
     20          1           0       -3.435761   -0.845285   -1.421569
     21          1           0       -4.532697   -0.947244   -0.058637
     22          1           0        1.649486   -2.319117   -0.283178
     23          1           0        1.344062   -0.972595   -1.385508
     24          1           0        1.027587    1.613632    1.319583
     25          1           0        1.032592    1.387746   -0.442626
     26          1           0        3.090217    0.978342   -1.514317
     27          1           0        4.549700    0.859601   -0.515185
     28          1           0        3.768128   -1.382557   -1.358657
     29          1           0        3.800783   -1.289917    0.399962
     30          1           0       -2.518023   -0.875236    1.488897
     31          1           0       -2.483870   -2.280612    0.433376
 ---------------------------------------------------------------------

 SCF Done:  E(RM062X) =  -617.494980038     A.U. after    1 cycles

 The electronic state is 1-A.
 Alpha  occ. eigenvalues --  -19.63364 -19.63028 -19.62945 -10.63527 -10.58720
 Alpha  occ. eigenvalues --  -10.58027 -10.57936 -10.57581 -10.53393 -10.53353
 Alpha  occ. eigenvalues --  -10.53214 -10.53172 -10.52936  -1.20024  -1.16391
 Alpha  occ. eigenvalues --   -1.13646  -0.90850  -0.89725  -0.87123  -0.84275
 Alpha  occ. eigenvalues --   -0.75423  -0.74179  -0.73304  -0.70083  -0.66177
 Alpha  occ. eigenvalues --   -0.61937  -0.60502  -0.59195  -0.57838  -0.56280
 Alpha  occ. eigenvalues --   -0.54734  -0.52929  -0.52289  -0.50091  -0.49330
 Alpha  occ. eigenvalues --   -0.48314  -0.46528  -0.46028  -0.45742  -0.44493
 Alpha  occ. eigenvalues --   -0.44170  -0.42729  -0.40999  -0.40297  -0.38964
 Alpha  occ. eigenvalues --   -0.38381  -0.38027  -0.36217  -0.35415  -0.33695
 Alpha  occ. eigenvalues --   -0.31719
 Alpha virt. eigenvalues --   -0.00091   0.00750   0.00846   0.01049   0.02189
 Alpha virt. eigenvalues --    0.02491   0.02605   0.03527   0.03648   0.04321
 Alpha virt. eigenvalues --    0.04622   0.04916   0.05636   0.05832   0.07035

 Mulliken charges:
               1
     1  C   -0.071430
     2  C   -0.568466
     3  C   -0.240947
     4  C    0.045330
     5  C   -0.202578
     6  C   -0.104726
     7  C   -0.373938
     8  C   -0.145891
     9  O   -0.359391
    10  C   -0.437604
    11  O   -0.309228
    12  C   -0.332024
    13  O   -0.300107
    14  H    0.259673
    15  H    0.162034
    16  H    0.151591
    17  H    0.234016
    18  H    0.207586
    19  H    0.136640
    20  H    0.155586
    21  H    0.197490
    22  H    0.188451
    23  H    0.209185
    24  H    0.209822
    25  H    0.224061
    26  H    0.132197
    27  H    0.212341
    28  H    0.167198
    29  H    0.174833
    30  H    0.198150
    31  H    0.180149
 Sum of Mulliken charges =  -0.00000

 Dipole moment (field-independent basis, Debye):
    X=             -1.5278    Y=             -1.3410    Z=             -1.4622  Tot=              2.5040
 Quadrupole moment (field-independent basis, Debye-Ang):
   XX=            -73.6344   YY=            -79.7059   ZZ=            -82.6702
   XY=             -6.2549   XZ=             -5.5571   YZ=              1.0271

  Exact polarizability: 177.414  -2.294 158.765  -0.735   0.848 148.115
 Approx polarizability: 147.666  -1.623 141.894   0.010   0.476 142.604

 ******    1 imaginary frequencies (negative Signs) ******

                      1                      2                      3
                      A                      A                      A
 Frequencies --    -32.8026                60.1088               103.3904
 Red. masses --      3.4075                 3.6392                 3.6019
 Frc consts  --      0.0022                 0.0077                 0.0227
 IR Inten    --      1.1042                 1.5294                 1.9065

                      4                      5                      6
                      A                      A                      A
 Frequencies --    123.6097               172.3684               209.3501
 Red. masses --      2.7972                 2.9785                 1.8636
 Frc consts  --      0.0252                 0.0521                 0.0481
 IR Inten    --      1.5738                 0.6591                 2.3139

                      7                      8                      9
                      A                      A                      A
 Frequencies --    258.2290               270.7174               323.2324
 Red. masses --      2.0688                 3.8114                 2.5163
 Frc consts  --      0.0813                 0.1646                 0.1549
 IR Inten    --      3.8156                 0.8256                 6.6325

                     10                     11                     12
                      A                      A                      A
 Frequencies --    346.9880               379.0222               435.3280
 Red. masses --      3.9258                 2.5573                 2.4980
 Frc consts  --      0.2785                 0.2165                 0.2789
 IR Inten    --     29.7198                 5.8518                 1.4228

                     13                     14                     15
                      A                      A                      A
 Frequencies --    447.7404               476.4643               482.0519
 Red. masses --      3.8198                 3.2021                 3.6036
 Frc consts  --      0.4512                 0.4283                 0.4934
 IR Inten    --      8.7630                 1.5600                 1.5689

                     16                     17                     18
                      A                      A                      A
 Frequencies --    556.9557               630.6765               638.8625
 Red. masses --      2.0472                 3.1708                 2.4456
 Frc consts  --      0.3742                 0.7431                 0.5881
 IR Inten    --      5.1489                18.4475                 3.3892

                     19                     20                     21
                      A                      A                      A
 Frequencies --    664.4974               783.2390               827.1719
 Red. masses --      4.3788                 1.2943                 2.1483
 Frc consts  --      1.1392                 0.4678                 0.8660
 IR Inten    --      2.0465                 6.2051                 1.8636

                     22                     23                     24
                      A                      A                      A
 Frequencies --    843.4846               880.0854               887.3833
 Red. masses --      2.5352                 1.3990                 2.6551
 Frc consts  --      1.0627                 0.6384                 1.2318
 IR Inten    --      6.9544                 9.3757                 3.7082

                     25                     26                     27
                      A                      A                      A
 Frequencies --    896.1917               922.8849               944.1330
 Red. masses --      2.4660                 2.1486                 2.3944
 Frc consts  --      1.1669                 1.0782                 1.2575
 IR Inten    --     12.3210                32.9117                43.1291

                     28                     29                     30
                      A                      A                      A
 Frequencies --    968.7192               981.0431               992.7901
 Red. masses --      1.7725                 2.0745                 1.6361
 Frc consts  --      0.9800                 1.1764                 0.9501
 IR Inten    --     13.0372                15.6177                14.1265

                     31                     32                     33
                      A                      A                      A
 Frequencies --   1010.3072              1045.3344              1049.2386
 Red. masses --      2.0629                 2.8093                 1.7471
 Frc consts  --      1.2406                 1.8086                 1.1332
 IR Inten    --      5.5542               157.7791                18.1828

                     34                     35                     36
                      A                      A                      A
 Frequencies --   1072.7268              1084.1840              1118.6703
 Red. masses --      1.8329                 2.1369                 4.4212
 Frc consts  --      1.2427                 1.4799                 3.2599
 IR Inten    --    120.9590                 4.9938               284.2807

                     37                     38                     39
                      A                      A                      A
 Frequencies --   1141.9219              1153.5465              1163.9791
 Red. masses --      3.2954                 2.8107                 3.0404
 Frc consts  --      2.5318                 2.2036                 2.4270
 IR Inten    --     67.7501                26.9537               192.9037

                     40                     41                     42
                      A                      A                      A
 Frequencies --   1167.9568              1193.7194              1207.8990
 Red. masses --      2.6873                 2.2162                 1.3792
 Frc consts  --      2.1598                 1.8607                 1.1856
 IR Inten    --     84.9885                42.9140                20.2093

                     43                     44                     45
                      A                      A                      A
 Frequencies --   1218.8273              1243.4158              1253.3304
 Red. masses --      1.5092                 1.6285                 1.6134
 Frc consts  --      1.3210                 1.4835                 1.4932
 IR Inten    --      1.7719                44.8550                18.8787

                     46                     47                     48
                      A                      A                      A
 Frequencies --   1290.6183              1304.4846              1309.4060
 Red. masses --      1.2032                 1.1940                 1.1886
 Frc consts  --      1.1808                 1.1971                 1.2007
 IR Inten    --      3.1712                 9.6753                14.4996

                     49                     50                     51
                      A                      A                      A
 Frequencies --   1329.3803              1340.8629              1347.3669
 Red. masses --      1.2823                 1.2710                 1.2983
 Frc consts  --      1.3352                 1.3463                 1.3886
 IR Inten    --     15.2030                 6.4457                 1.4928

                     52                     53                     54
                      A                      A                      A
 Frequencies --   1366.9952              1370.5801              1373.9231
 Red. masses --      1.4152                 1.3491                 1.3400
 Frc consts  --      1.5582                 1.4932                 1.4903
 IR Inten    --      3.6318                 6.1247                11.0806

                     55                     56                     57
                      A                      A                      A
 Frequencies --   1382.3379              1401.5380              1403.2285
 Red. masses --      1.4208                 1.3902                 1.2548
 Frc consts  --      1.5996                 1.6089                 1.4558
 IR Inten    --      2.4947                 9.1004                 8.9431

                     58                     59                     60
                      A                      A                      A
 Frequencies --   1413.7861              1418.2409              1428.2684
 Red. masses --      1.4317                 1.3864                 1.3217
 Frc consts  --      1.6861                 1.6430                 1.5885
 IR Inten    --     26.7662                 8.3604                 2.3495

                     61                     62                     63
                      A                      A                      A
 Frequencies --   1433.3135              1483.4188              1487.8803
 Red. masses --      1.3604                 1.0927                 1.0784
 Frc consts  --      1.6466                 1.4167                 1.4065
 IR Inten    --     29.5464                 7.7051                 2.3309

                     64                     65                     66
                      A                      A                      A
 Frequencies --   1494.2943              1496.4375              1502.8945
 Red. masses --      1.0942                 1.1121                 1.0834
 Frc consts  --      1.4395                 1.4672                 1.4418
 IR Inten    --      7.9927                 6.8546                 1.8432

                     67                     68                     69
                      A                      A                      A
 Frequencies --   1503.2598              1517.1576              1523.2124
 Red. masses --      1.0981                 1.1007                 1.0871
 Frc consts  --      1.4621                 1.4928                 1.4860
 IR Inten    --      9.4459                10.1548                 3.5778

                     70                     71                     72
                      A                      A                      A
 Frequencies --   3020.0097              3055.8971              3062.0405
 Red. masses --      1.0704                 1.0670                 1.0685
 Frc consts  --      5.7518                 5.8706                 5.9024
 IR Inten    --     71.6432                 3.8591                43.8118

                     73                     74                     75
                      A                      A                      A
 Frequencies --   3064.0763              3070.4908              3073.9191
 Red. masses --      1.0702                 1.0617                 1.0703
 Frc consts  --      5.9199                 5.8977                 5.9586
 IR Inten    --     15.7554                25.3532                90.9895

                     76                     77                     78
                      A                      A                      A
 Frequencies --   3074.6140              3078.4369              3082.0500
 Red. masses --      1.0674                 1.0619                 1.0641
 Frc consts  --      5.9451                 5.9293                 5.9553
 IR Inten    --     16.5947                42.4518                37.6838

                     79                     80                     81
                      A                      A                      A
 Frequencies --   3090.8397              3112.3985              3116.9190
 Red. masses --      1.0833                 1.1000                 1.0992
 Frc consts  --      6.0974                 6.2781                 6.2921
 IR Inten    --     51.1411                32.0640                31.3919

                     82                     83                     84
                      A                      A                      A
 Frequencies --   3119.7597              3131.2561              3131.6379
 Red. masses --      1.1035                 1.1017                 1.0983
 Frc consts  --      6.3282                 6.3641                 6.3461
 IR Inten    --     59.2022                30.5606                55.2406

                     85                     86                     87
                      A                      A                      A
 Frequencies --   3133.6443              3135.8393              3142.8601
 Red. masses --      1.1022                 1.0998                 1.1008
 Frc consts  --      6.3769                 6.3717                 6.4061
 IR Inten    --     44.3067                55.4326                44.9046

 - Thermochemistry -
 -------------------
 Temperature   298.150 Kelvin.  Pressure   1.00000 Atm.
 Atom     1 has atomic number  6 and mass  12.00000

 Molecular mass:   186.12559 amu.
 Principal axes and moments of inertia in atomic units:
                           1         2         3
     Eigenvalues --   919.246554188.061264609.38221
           X            0.99993  -0.00888  -0.00726
           Y            0.00898   0.99986   0.01419
           Z            0.00713  -0.01425   0.99987
 This molecule is an asymmetric top.
 Rotational symmetry number  1.
 Warning -- assumption of classical behavior for rotation
           may cause significant error
 Rotational temperatures (Kelvin)      0.09422     0.02068     0.01879
 Rotational constants (GHZ):           1.96328     0.43093     0.39154
    1 imaginary frequencies ignored.
 Zero-point vibrational energy     737206.8 (Joules/Mol)
                                  176.19665 (Kcal/Mol)
 Warning -- explicit consideration of  15 degrees of freedom as
           vibrations may cause significant error
 Vibrational temperatures:     86.48   148.76   177.85   248.00   301.21
          (Kelvin)            371.53   389.50   465.06   499.24   545.33
                              626.34   644.20   685.53   693.57   801.34
                              907.40   919.18   956.06  1126.91  1190.12
                             1213.59  1266.25  1276.75  1289.42  1327.83
                             1358.40  1393.77  1411.50  1428.40  1453.61
                             1504.00  1509.62  1543.41  1559.90  1609.52
                             1642.97  1659.70  1674.71  1680.43  1717.50
                             1737.90  1753.62  1789.00  1803.26  1856.91
                             1876.86  1883.94  1912.68  1929.20  1938.56
                             1966.80  1971.96  1976.77  1988.88  2016.50
                             2018.93  2034.12  2040.53  2054.96  2062.22
                             2134.31  2140.73  2149.96  2153.04  2162.33
                             2162.86  2182.85  2191.56  4345.12  4396.75
                             4405.59  4408.52  4417.75  4422.68  4423.68
                             4429.18  4434.38  4447.03  4478.05  4484.55
                             4488.64  4505.18  4505.73  4508.62  4511.77
                             4521.87

 Zero-point correction=                           0.280787 (Hartree/Particle)
 Thermal correction to Energy=                    0.291754
 Thermal correction to Enthalpy=                  0.292698
 Thermal correction to Gibbs Free Energy=         0.243995
 Sum of electronic and zero-point Energies=           -617.214193
 Sum of electronic and thermal Energies=              -617.203226
 Sum of electronic and thermal Enthalpies=            -617.202282
 Sum of electronic and thermal Free Energies=         -617.250985

                     E (Thermal)             CV                S
                      KCal/Mol        Cal/Mol-Kelvin    Cal/Mol-Kelvin
 Total                  183.078             44.807            102.505
 Electronic               0.000              0.000              0.000
 Translational            0.889              2.981             41.570
 Rotational               0.889              2.981             31.251
 Vibrational            181.301             38.845             29.684
 Vibration     1          0.597              1.973              4.454
 Vibration     2          0.605              1.946              3.389
 Vibration     3          0.610              1.929              3.043
 Vibration     4          0.626              1.876              2.410
 Vibration     5          0.642              1.826              2.049
 Vibration     6          0.667              1.749              1.674
 Vibration     7          0.674              1.727              1.592
 Vibration     8          0.708              1.629              1.294
 Vibration     9          0.725              1.581              1.180
 Vibration    10          0.749              1.515              1.043
 Vibration    11          0.796              1.393              0.841
 Vibration    12          0.807              1.366              0.803
 Vibration    13          0.833              1.302              0.720
 Vibration    14          0.838              1.290              0.705
 Vibration    15          0.912              1.124              0.530

                           ! Non-Optimized Parameters !
 Normal termination of Gaussian 16 at Mon Nov  5 01:19:12 2018.
