 Gaussian 16, Revision A.03,
 Gaussian 16:  ES64L-G16RevA.03 25-Dec-2016

 ----------------------------------------------------------------------
 #M062X/6-311++G(2d,2p) opt=ModRedundant freq=noraman SCRF=(Solvent=Wat
 er)
 ----------------------------------------------------------------------

 ----------------------------
 2SO_1_e4_D_PSI.inp_extract_4
 ----------------------------
 Symbolic Z-matrix:
 Charge =  0 Multiplicity = 1

 SCF Done:  E(RM062X) =  -617.493656582     A.U. after   12 cycles
 SCF Done:  E(RM062X) =  -617.495360659     A.U. after   10 cycles
 SCF Done:  E(RM062X) =  -617.495588968     A.U. after   10 cycles
 SCF Done:  E(RM062X) =  -617.495697104     A.U. after    9 cycles
 SCF Done:  E(RM062X) =  -617.495719831     A.U. after    9 cycles
 SCF Done:  E(RM062X) =  -617.495724427     A.U. after    9 cycles
 SCF Done:  E(RM062X) =  -617.495725224     A.U. after    8 cycles
 SCF Done:  E(RM062X) =  -617.495725289     A.U. after    6 cycles
 Optimization completed.
    -- Stationary point found.
 Normal termination of Gaussian 16 at Mon Nov  5 01:30:38 2018.

 ----------------------------------------------------------------------
 #N Geom=AllCheck Guess=TCheck SCRF=Check GenChk RM062X/6-311++G(2d,2p)
  Freq
 ----------------------------------------------------------------------

 Structure from the checkpoint file:  "2SO_1_e4_D_PSI.inp_extract_4.chk"
 ----------------------------
 2SO_1_e4_D_PSI.inp_extract_4
 ----------------------------
 Charge =  0 Multiplicity = 1

                         Standard orientation:
 ---------------------------------------------------------------------
 Center     Atomic      Atomic             Coordinates (Angstroms)
 Number     Number       Type             X           Y           Z
 ---------------------------------------------------------------------
      1          6           0       -1.100817    0.223283    0.356884
      2          6           0        3.789257   -0.415591    0.589995
      3          6           0        1.131119    0.167614   -0.564659
      4          6           0        2.416351   -0.720341    1.198642
      5          6           0        3.608904    0.278571   -0.769774
      6          6           0       -2.181334    1.287058    0.474377
      7          6           0       -1.509215   -0.779244   -0.725313
      8          6           0       -3.806031   -0.407895   -0.353750
      9          8           0       -2.756515   -1.365488   -0.402276
     10          6           0       -3.541002    0.636024    0.717289
     11          8           0        0.122860    0.901652    0.082673
     12          6           0        2.323562    1.101113   -0.755376
     13          8           0        1.471335   -0.991349    0.165862
     14          1           0       -1.003519   -0.323442    1.300321
     15          1           0        4.363778   -1.333280    0.471300
     16          1           0        4.341597    0.228727    1.275338
     17          1           0        0.777565   -0.205306   -1.526877
     18          1           0        2.440262   -1.601244    1.834748
     19          1           0        2.058129    0.118806    1.799806
     20          1           0        3.541276   -0.469960   -1.560594
     21          1           0        4.466276    0.908368   -0.998811
     22          1           0       -1.928172    1.982885    1.274540
     23          1           0       -2.200224    1.851855   -0.461591
     24          1           0       -0.797518   -1.597913   -0.800909
     25          1           0       -1.572278   -0.268160   -1.695337
     26          1           0       -3.899952    0.073545   -1.334804
     27          1           0       -4.718135   -0.965984   -0.153888
     28          1           0       -4.333671    1.384136    0.705957
     29          1           0       -3.555739    0.152518    1.696208
     30          1           0        2.344142    1.815412    0.069946
     31          1           0        2.189982    1.666960   -1.675314
 ---------------------------------------------------------------------

 SCF Done:  E(RM062X) =  -617.495725289     A.U. after    1 cycles

 The electronic state is 1-A.
 Alpha  occ. eigenvalues --  -19.63329 -19.63254 -19.63097 -10.63637 -10.58768
 Alpha  occ. eigenvalues --  -10.58209 -10.58059 -10.57926 -10.53269 -10.53248
 Alpha  occ. eigenvalues --  -10.53228 -10.53204 -10.52931  -1.20121  -1.16722
 Alpha  occ. eigenvalues --   -1.13601  -0.90970  -0.89818  -0.86942  -0.84595
 Alpha  occ. eigenvalues --   -0.75481  -0.74749  -0.72827  -0.69984  -0.65660
 Alpha  occ. eigenvalues --   -0.62356  -0.60774  -0.59376  -0.57949  -0.56629
 Alpha  occ. eigenvalues --   -0.55492  -0.52963  -0.51809  -0.50508  -0.49428
 Alpha  occ. eigenvalues --   -0.47792  -0.46820  -0.45687  -0.45596  -0.44589
 Alpha  occ. eigenvalues --   -0.44145  -0.43398  -0.40689  -0.40056  -0.39845
 Alpha  occ. eigenvalues --   -0.38569  -0.37464  -0.36114  -0.35254  -0.33925
 Alpha  occ. eigenvalues --   -0.32239
 Alpha virt. eigenvalues --   -0.00112   0.00734   0.00830   0.01122   0.02108
 Alpha virt. eigenvalues --    0.02349   0.02558   0.03521   0.03782   0.04289
 Alpha virt. eigenvalues --    0.04482   0.04536   0.05559   0.05825   0.07042

 Mulliken charges:
               1
     1  C    0.055381
     2  C   -0.488540
     3  C   -0.172507
     4  C   -0.047257
     5  C   -0.216187
     6  C   -0.328525
     7  C   -0.336134
     8  C   -0.125817
     9  O   -0.346268
    10  C   -0.382247
    11  O   -0.311953
    12  C   -0.400922
    13  O   -0.271311
    14  H    0.230535
    15  H    0.162686
    16  H    0.148591
    17  H    0.243398
    18  H    0.200909
    19  H    0.149790
    20  H    0.151902
    21  H    0.196326
    22  H    0.173425
    23  H    0.202314
    24  H    0.240009
    25  H    0.215877
    26  H    0.132015
    27  H    0.206845
    28  H    0.178833
    29  H    0.162808
    30  H    0.196899
    31  H    0.179123
 Sum of Mulliken charges =  -0.00000

 Dipole moment (field-independent basis, Debye):
    X=              0.9003    Y=              2.0330    Z=             -0.1336  Tot=              2.2275
 Quadrupole moment (field-independent basis, Debye-Ang):
   XX=            -68.6705   YY=            -86.8969   ZZ=            -76.5484
   XY=             -4.7470   XZ=              0.4212   YZ=             -1.4946

  Exact polarizability: 179.638  -1.740 152.181  -1.524  -2.307 153.993
 Approx polarizability: 147.587  -0.804 142.130  -0.411  -1.481 141.965

                      1                      2                      3
                      A                      A                      A
 Frequencies --     37.7359                64.3393                85.4252
 Red. masses --      3.4369                 3.9441                 3.6003
 Frc consts  --      0.0029                 0.0096                 0.0155
 IR Inten    --      2.3388                 0.2965                 1.9641

                      4                      5                      6
                      A                      A                      A
 Frequencies --    132.7849               172.5545               229.5178
 Red. masses --      3.2063                 2.3155                 2.3235
 Frc consts  --      0.0333                 0.0406                 0.0721
 IR Inten    --      0.6929                 2.7049                 8.4057

                      7                      8                      9
                      A                      A                      A
 Frequencies --    254.7413               272.2188               278.6351
 Red. masses --      2.1434                 2.7555                 3.6593
 Frc consts  --      0.0820                 0.1203                 0.1674
 IR Inten    --      4.5752                 1.2206                 1.7609

                     10                     11                     12
                      A                      A                      A
 Frequencies --    354.8027               371.7773               443.7064
 Red. masses --      2.7969                 2.5253                 3.2895
 Frc consts  --      0.2074                 0.2057                 0.3816
 IR Inten    --     11.1857                20.6099                 3.5078

                     13                     14                     15
                      A                      A                      A
 Frequencies --    455.4326               466.9347               509.6795
 Red. masses --      3.6298                 2.5021                 2.7519
 Frc consts  --      0.4436                 0.3214                 0.4212
 IR Inten    --      3.6009                 1.6979                 4.3252

                     16                     17                     18
                      A                      A                      A
 Frequencies --    548.4412               616.9786               634.5246
 Red. masses --      2.8898                 3.2842                 1.9880
 Frc consts  --      0.5121                 0.7366                 0.4716
 IR Inten    --      2.0730                 5.5948                 7.7289

                     19                     20                     21
                      A                      A                      A
 Frequencies --    662.6445               783.6161               831.6354
 Red. masses --      4.1128                 1.2976                 2.1923
 Frc consts  --      1.0640                 0.4695                 0.8933
 IR Inten    --      7.8338                 5.9223                 0.4066

                     22                     23                     24
                      A                      A                      A
 Frequencies --    842.4640               876.2597               892.6419
 Red. masses --      2.7202                 1.3886                 2.6662
 Frc consts  --      1.1375                 0.6282                 1.2517
 IR Inten    --      9.1495                 9.5941                 2.5875

                     25                     26                     27
                      A                      A                      A
 Frequencies --    901.1673               924.7548               944.1976
 Red. masses --      2.4549                 2.1220                 2.3165
 Frc consts  --      1.1746                 1.0692                 1.2168
 IR Inten    --     25.7206                21.5769                14.0128

                     28                     29                     30
                      A                      A                      A
 Frequencies --    972.5566               987.1590               993.7298
 Red. masses --      1.7096                 1.9156                 1.7815
 Frc consts  --      0.9528                 1.0998                 1.0365
 IR Inten    --      5.8189                37.4375                30.3061

                     31                     32                     33
                      A                      A                      A
 Frequencies --   1007.8509              1048.5093              1060.6210
 Red. masses --      1.9723                 2.4703                 2.0984
 Frc consts  --      1.1803                 1.6001                 1.3908
 IR Inten    --      6.1961                59.5004               120.3919

                     34                     35                     36
                      A                      A                      A
 Frequencies --   1074.7198              1085.0644              1116.5001
 Red. masses --      1.7888                 2.2835                 4.6988
 Frc consts  --      1.2173                 1.5841                 3.4511
 IR Inten    --    128.2296                 4.4758               321.6437

                     37                     38                     39
                      A                      A                      A
 Frequencies --   1141.8330              1158.1315              1169.5591
 Red. masses --      2.6527                 2.9815                 3.8396
 Frc consts  --      2.0377                 2.3561                 3.0944
 IR Inten    --    116.5301                92.7191               132.3205

                     40                     41                     42
                      A                      A                      A
 Frequencies --   1175.4370              1185.4593              1213.7532
 Red. masses --      2.3115                 2.2572                 1.3845
 Frc consts  --      1.8817                 1.8689                 1.2017
 IR Inten    --     54.7351                14.4491                 6.7788

                     43                     44                     45
                      A                      A                      A
 Frequencies --   1223.3730              1244.6598              1253.6908
 Red. masses --      1.5729                 1.6593                 1.5254
 Frc consts  --      1.3869                 1.5145                 1.4126
 IR Inten    --     16.3567                38.5523                24.6291

                     46                     47                     48
                      A                      A                      A
 Frequencies --   1291.1232              1305.4153              1308.9908
 Red. masses --      1.2014                 1.1568                 1.1664
 Frc consts  --      1.1800                 1.1615                 1.1775
 IR Inten    --      3.0822                15.9775                10.9410

                     49                     50                     51
                      A                      A                      A
 Frequencies --   1333.4218              1336.3004              1348.6709
 Red. masses --      1.2954                 1.1930                 1.3053
 Frc consts  --      1.3570                 1.2552                 1.3989
 IR Inten    --      8.2340                 0.3093                 2.6699

                     52                     53                     54
                      A                      A                      A
 Frequencies --   1362.9429              1367.0143              1372.2870
 Red. masses --      1.2976                 1.4265                 1.3574
 Frc consts  --      1.4202                 1.5706                 1.5061
 IR Inten    --      6.5626                 1.9664                 0.5652

                     55                     56                     57
                      A                      A                      A
 Frequencies --   1384.6188              1398.4916              1402.5137
 Red. masses --      1.4662                 1.4361                 1.3052
 Frc consts  --      1.6562                 1.6549                 1.5127
 IR Inten    --      4.5512                31.6071                 1.1226

                     58                     59                     60
                      A                      A                      A
 Frequencies --   1410.8297              1421.9044              1432.5409
 Red. masses --      1.3750                 1.3368                 1.4619
 Frc consts  --      1.6125                 1.5924                 1.7676
 IR Inten    --      5.9039                13.4550                 4.8600

                     61                     62                     63
                      A                      A                      A
 Frequencies --   1436.3604              1482.3241              1487.8816
 Red. masses --      1.4101                 1.0933                 1.0785
 Frc consts  --      1.7140                 1.4154                 1.4067
 IR Inten    --     29.2612                 7.8372                 2.3111

                     64                     65                     66
                      A                      A                      A
 Frequencies --   1494.9269              1495.8697              1503.3721
 Red. masses --      1.0962                 1.1138                 1.0929
 Frc consts  --      1.4434                 1.4685                 1.4554
 IR Inten    --      3.9308                13.1899                 4.9871

                     67                     68                     69
                      A                      A                      A
 Frequencies --   1504.2270              1518.2245              1523.3032
 Red. masses --      1.0907                 1.0960                 1.0867
 Frc consts  --      1.4540                 1.4885                 1.4857
 IR Inten    --      7.6948                 6.3055                 4.2144

                     70                     71                     72
                      A                      A                      A
 Frequencies --   3010.3151              3021.1777              3046.1770
 Red. masses --      1.0702                 1.0705                 1.0818
 Frc consts  --      5.7140                 5.7568                 5.9142
 IR Inten    --     40.6533                79.7122                45.1249

                     73                     74                     75
                      A                      A                      A
 Frequencies --   3061.2158              3062.2573              3072.1535
 Red. masses --      1.0656                 1.0689                 1.0620
 Frc consts  --      5.8833                 5.9056                 5.9055
 IR Inten    --     58.1206                36.8530                39.5376

                     76                     77                     78
                      A                      A                      A
 Frequencies --   3074.9823              3079.1816              3082.4705
 Red. masses --      1.0665                 1.0633                 1.0635
 Frc consts  --      5.9415                 5.9400                 5.9538
 IR Inten    --     17.9991                38.4200                39.2732

                     79                     80                     81
                      A                      A                      A
 Frequencies --   3092.1324              3114.3231              3117.6300
 Red. masses --      1.0843                 1.0994                 1.0993
 Frc consts  --      6.1084                 6.2823                 6.2951
 IR Inten    --     44.2976                43.0317                30.3952

                     82                     83                     84
                      A                      A                      A
 Frequencies --   3122.1283              3131.6663              3134.3780
 Red. masses --      1.1026                 1.1017                 1.0948
 Frc consts  --      6.3324                 6.3658                 6.3371
 IR Inten    --     52.9485                44.4478                46.8302

                     85                     86                     87
                      A                      A                      A
 Frequencies --   3136.4281              3145.8306              3146.6174
 Red. masses --      1.1006                 1.1000                 1.0937
 Frc consts  --      6.3788                 6.4138                 6.3800
 IR Inten    --     54.6125                44.1845                22.7665

 - Thermochemistry -
 -------------------
 Temperature   298.150 Kelvin.  Pressure   1.00000 Atm.
 Atom     1 has atomic number  6 and mass  12.00000

 Molecular mass:   186.12559 amu.
 Principal axes and moments of inertia in atomic units:
                           1         2         3
     Eigenvalues --   828.303424724.055294909.51826
           X            0.99998  -0.00589  -0.00116
           Y            0.00586   0.99967  -0.02483
           Z            0.00131   0.02483   0.99969
 This molecule is an asymmetric top.
 Rotational symmetry number  1.
 Warning -- assumption of classical behavior for rotation
           may cause significant error
 Rotational temperatures (Kelvin)      0.10457     0.01833     0.01764
 Rotational constants (GHZ):           2.17884     0.38203     0.36760
 Zero-point vibrational energy     737359.2 (Joules/Mol)
                                  176.23309 (Kcal/Mol)
 Warning -- explicit consideration of  17 degrees of freedom as
           vibrations may cause significant error
 Vibrational temperatures:     54.29    92.57   122.91   191.05   248.27
          (Kelvin)            330.22   366.52   391.66   400.89   510.48
                              534.90   638.39   655.27   671.81   733.32
                              789.08   887.69   912.94   953.40  1127.45
                             1196.54  1212.12  1260.74  1284.31  1296.58
                             1330.52  1358.49  1399.29  1420.30  1429.76
                             1450.07  1508.57  1526.00  1546.28  1561.17
                             1606.39  1642.84  1666.29  1682.73  1691.19
                             1705.61  1746.32  1760.16  1790.79  1803.78
                             1857.64  1878.20  1883.35  1918.50  1922.64
                             1940.44  1960.97  1966.83  1974.41  1992.16
                             2012.12  2017.90  2029.87  2045.80  2061.11
                             2066.60  2132.73  2140.73  2150.87  2152.22
                             2163.02  2164.25  2184.39  2191.69  4331.17
                             4346.80  4382.77  4404.41  4405.91  4420.14
                             4424.21  4430.26  4434.99  4448.89  4480.82
                             4485.57  4492.05  4505.77  4509.67  4512.62
                             4526.15  4527.28

 Zero-point correction=                           0.280845 (Hartree/Particle)
 Thermal correction to Energy=                    0.292690
 Thermal correction to Enthalpy=                  0.293634
 Thermal correction to Gibbs Free Energy=         0.242281
 Sum of electronic and zero-point Energies=           -617.214880
 Sum of electronic and thermal Energies=              -617.203035
 Sum of electronic and thermal Enthalpies=            -617.202091
 Sum of electronic and thermal Free Energies=         -617.253445

                     E (Thermal)             CV                S
                      KCal/Mol        Cal/Mol-Kelvin    Cal/Mol-Kelvin
 Total                  183.666             46.775            108.083
 Electronic               0.000              0.000              0.000
 Translational            0.889              2.981             41.570
 Rotational               0.889              2.981             31.330
 Vibrational            181.888             40.813             35.183
 Vibration     1          0.594              1.982              5.375
 Vibration     2          0.597              1.971              4.319
 Vibration     3          0.601              1.959              3.762
 Vibration     4          0.613              1.921              2.905
 Vibration     5          0.626              1.876              2.407
 Vibration     6          0.652              1.796              1.883
 Vibration     7          0.665              1.755              1.698
 Vibration     8          0.675              1.725              1.582
 Vibration     9          0.679              1.713              1.542
 Vibration    10          0.731              1.565              1.145
 Vibration    11          0.743              1.530              1.072
 Vibration    12          0.803              1.375              0.815
 Vibration    13          0.814              1.349              0.780
 Vibration    14          0.824              1.323              0.746
 Vibration    15          0.865              1.229              0.634
 Vibration    16          0.904              1.143              0.547
 Vibration    17          0.977              0.996              0.421

 Optimization completed.
    -- Stationary point found.
 Normal termination of Gaussian 16 at Mon Nov  5 02:23:46 2018.
