 Gaussian 16, Revision A.03,
 Gaussian 16:  ES64L-G16RevA.03 25-Dec-2016

 ----------------------------------------------------------------------
 #M062X/6-311++G(2d,2p) opt=ModRedundant freq=noraman SCRF=(Solvent=Wat
 er)
 ----------------------------------------------------------------------

 -----------------------------
 2SO_1_e4_D_PSI.inp_extract_22
 -----------------------------
 Symbolic Z-matrix:
 Charge =  0 Multiplicity = 1

 SCF Done:  E(RM062X) =  -617.496667461     A.U. after   12 cycles
 SCF Done:  E(RM062X) =  -617.498269382     A.U. after   10 cycles
 SCF Done:  E(RM062X) =  -617.498486951     A.U. after   10 cycles
 SCF Done:  E(RM062X) =  -617.498529438     A.U. after   10 cycles
 SCF Done:  E(RM062X) =  -617.498541113     A.U. after    9 cycles
 SCF Done:  E(RM062X) =  -617.498543048     A.U. after    8 cycles
 SCF Done:  E(RM062X) =  -617.498543230     A.U. after    6 cycles
 SCF Done:  E(RM062X) =  -617.498543277     A.U. after    6 cycles
 Optimization completed.
    -- Stationary point found.
 Normal termination of Gaussian 16 at Mon Nov  5 01:24:25 2018.

 ----------------------------------------------------------------------
 #N Geom=AllCheck Guess=TCheck SCRF=Check GenChk RM062X/6-311++G(2d,2p)
  Freq
 ----------------------------------------------------------------------

 Structure from the checkpoint file:  "2SO_1_e4_D_PSI.inp_extract_22.chk"
 -----------------------------
 2SO_1_e4_D_PSI.inp_extract_22
 -----------------------------
 Charge =  0 Multiplicity = 1

                         Standard orientation:
 ---------------------------------------------------------------------
 Center     Atomic      Atomic             Coordinates (Angstroms)
 Number     Number       Type             X           Y           Z
 ---------------------------------------------------------------------
      1          6           0        1.092255   -0.235114   -0.140159
      2          6           0       -3.713012    0.851129    0.149693
      3          6           0       -1.234647   -0.675278   -0.363344
      4          6           0       -2.279220    1.387976    0.071260
      5          6           0       -3.710485   -0.666609   -0.093626
      6          6           0        1.563095    1.082406    0.453431
      7          6           0        2.139386   -1.317793    0.088222
      8          6           0        3.895099    0.241559    0.150964
      9          8           0        3.391837   -0.943131   -0.454331
     10          6           0        2.958137    1.417570   -0.074588
     11          8           0       -0.114387   -0.660237    0.483636
     12          6           0       -2.403665   -1.263071    0.421610
     13          8           0       -1.517796    0.616638   -0.854790
     14          1           0        0.935786   -0.116432   -1.215887
     15          1           0       -4.345670    1.348998   -0.583921
     16          1           0       -4.118902    1.076433    1.136826
     17          1           0       -1.013841   -1.265190   -1.256811
     18          1           0       -2.248267    2.415269   -0.282505
     19          1           0       -1.792347    1.355167    1.049135
     20          1           0       -3.795506   -0.869437   -1.162153
     21          1           0       -4.564905   -1.136400    0.389635
     22          1           0        0.844497    1.868621    0.221060
     23          1           0        1.595247    0.970756    1.541059
     24          1           0        1.840739   -2.245026   -0.397950
     25          1           0        2.232002   -1.500275    1.166499
     26          1           0        4.028442    0.067495    1.225796
     27          1           0        4.871954    0.419064   -0.293656
     28          1           0        3.357301    2.302678    0.421033
     29          1           0        2.911259    1.631441   -1.144639
     30          1           0       -2.271808   -1.018464    1.477526
     31          1           0       -2.384872   -2.347492    0.332058
 ---------------------------------------------------------------------

 SCF Done:  E(RM062X) =  -617.498543277     A.U. after    1 cycles

 The electronic state is 1-A.
 Alpha  occ. eigenvalues --  -19.63342 -19.63115 -19.63054 -10.63676 -10.58569
 Alpha  occ. eigenvalues --  -10.58040 -10.57980 -10.57888 -10.53263 -10.53219
 Alpha  occ. eigenvalues --  -10.53217 -10.53025 -10.52927  -1.20222  -1.16611
 Alpha  occ. eigenvalues --   -1.13669  -0.90930  -0.89717  -0.87172  -0.84162
 Alpha  occ. eigenvalues --   -0.75199  -0.74047  -0.73225  -0.70283  -0.65691
 Alpha  occ. eigenvalues --   -0.62634  -0.60236  -0.59156  -0.58432  -0.56702
 Alpha  occ. eigenvalues --   -0.55118  -0.52782  -0.52380  -0.49438  -0.49066
 Alpha  occ. eigenvalues --   -0.47752  -0.47716  -0.45901  -0.45536  -0.44437
 Alpha  occ. eigenvalues --   -0.44291  -0.42498  -0.40621  -0.40488  -0.39155
 Alpha  occ. eigenvalues --   -0.38442  -0.38137  -0.35977  -0.35570  -0.34178
 Alpha  occ. eigenvalues --   -0.31835
 Alpha virt. eigenvalues --   -0.00077   0.00745   0.00833   0.01078   0.02120
 Alpha virt. eigenvalues --    0.02468   0.02570   0.03574   0.03653   0.04175
 Alpha virt. eigenvalues --    0.04538   0.04817   0.05633   0.05751   0.06948

 Mulliken charges:
               1
     1  C    0.053442
     2  C   -0.565129
     3  C   -0.330387
     4  C    0.032469
     5  C   -0.197830
     6  C   -0.250229
     7  C   -0.294259
     8  C   -0.181978
     9  O   -0.331455
    10  C   -0.362074
    11  O   -0.258806
    12  C   -0.308096
    13  O   -0.291937
    14  H    0.247131
    15  H    0.163585
    16  H    0.149704
    17  H    0.231184
    18  H    0.213793
    19  H    0.128943
    20  H    0.157968
    21  H    0.192402
    22  H    0.149230
    23  H    0.213338
    24  H    0.194090
    25  H    0.183450
    26  H    0.138515
    27  H    0.209143
    28  H    0.179338
    29  H    0.162872
    30  H    0.194670
    31  H    0.176915
 Sum of Mulliken charges =   0.00000

 Dipole moment (field-independent basis, Debye):
    X=             -1.7778    Y=              1.2423    Z=              1.3206  Tot=              2.5393
 Quadrupole moment (field-independent basis, Debye-Ang):
   XX=            -76.2777   YY=            -77.8557   ZZ=            -82.4831
   XY=              6.5359   XZ=              2.0274   YZ=              1.6292

  Exact polarizability: 177.130   1.898 161.400   0.012   0.825 147.557
 Approx polarizability: 146.292   0.890 143.240  -0.408   0.550 142.551

 ******    1 imaginary frequencies (negative Signs) ******

                      1                      2                      3
                      A                      A                      A
 Frequencies --    -13.6026                54.4850                76.9061
 Red. masses --      3.7643                 3.9121                 3.4888
 Frc consts  --      0.0004                 0.0068                 0.0122
 IR Inten    --      0.9715                 0.8819                 1.3151

                      4                      5                      6
                      A                      A                      A
 Frequencies --    109.9012               194.8465               202.7298
 Red. masses --      2.9274                 2.9104                 1.8309
 Frc consts  --      0.0208                 0.0651                 0.0443
 IR Inten    --      3.3740                 0.5248                 1.4518

                      7                      8                      9
                      A                      A                      A
 Frequencies --    246.8079               264.3306               303.4745
 Red. masses --      2.0843                 3.8908                 2.3315
 Frc consts  --      0.0748                 0.1602                 0.1265
 IR Inten    --      5.0422                 1.0795                 2.5404

                     10                     11                     12
                      A                      A                      A
 Frequencies --    350.6051               383.5383               442.4387
 Red. masses --      3.9002                 2.3928                 3.9138
 Frc consts  --      0.2825                 0.2074                 0.4514
 IR Inten    --     27.5294                 8.9739                 3.4515

                     13                     14                     15
                      A                      A                      A
 Frequencies --    447.5528               474.9637               507.0564
 Red. masses --      2.4951                 3.3740                 2.7494
 Frc consts  --      0.2945                 0.4485                 0.4165
 IR Inten    --      4.6706                 1.3959                 5.9742

                     16                     17                     18
                      A                      A                      A
 Frequencies --    547.3373               612.8549               634.4113
 Red. masses --      3.5429                 2.5549                 1.9864
 Frc consts  --      0.6254                 0.5654                 0.4710
 IR Inten    --      0.8722                13.2345                 5.4452

                     19                     20                     21
                      A                      A                      A
 Frequencies --    661.3349               784.1698               833.0936
 Red. masses --      4.1338                 1.2996                 2.2740
 Frc consts  --      1.0652                 0.4708                 0.9299
 IR Inten    --      7.6960                 6.0804                 1.3854

                     22                     23                     24
                      A                      A                      A
 Frequencies --    841.6845               878.3455               894.0124
 Red. masses --      2.5572                 1.3961                 2.5766
 Frc consts  --      1.0674                 0.6346                 1.2134
 IR Inten    --      8.5184                11.8136                11.7362

                     25                     26                     27
                      A                      A                      A
 Frequencies --    898.4870               921.8760               942.0533
 Red. masses --      2.3321                 2.1384                 2.2939
 Frc consts  --      1.1092                 1.0707                 1.1994
 IR Inten    --      7.3122                35.1135                49.5419

                     28                     29                     30
                      A                      A                      A
 Frequencies --    966.9689               986.7836               995.5925
 Red. masses --      1.8146                 2.3163                 1.4207
 Frc consts  --      0.9996                 1.3289                 0.8297
 IR Inten    --     16.0680                36.4847                 2.7496

                     31                     32                     33
                      A                      A                      A
 Frequencies --   1007.5775              1051.9766              1071.5141
 Red. masses --      1.9931                 1.6841                 1.9457
 Frc consts  --      1.1922                 1.0981                 1.3162
 IR Inten    --      7.2606                 9.7562               203.7500

                     34                     35                     36
                      A                      A                      A
 Frequencies --   1080.7421              1085.2399              1111.5005
 Red. masses --      2.8690                 2.7802                 4.1348
 Frc consts  --      1.9744                 1.9292                 3.0097
 IR Inten    --     67.3817                26.0350               282.1331

                     37                     38                     39
                      A                      A                      A
 Frequencies --   1150.1951              1155.3672              1156.6084
 Red. masses --      3.1078                 3.1234                 2.7139
 Frc consts  --      2.4224                 2.4565                 2.1390
 IR Inten    --     93.7407                92.2761               178.1764

                     40                     41                     42
                      A                      A                      A
 Frequencies --   1169.0347              1192.7947              1209.3142
 Red. masses --      2.3297                 2.1274                 1.4391
 Frc consts  --      1.8759                 1.7833                 1.2400
 IR Inten    --     21.5461                43.7126                10.8777

                     43                     44                     45
                      A                      A                      A
 Frequencies --   1222.1070              1243.9485              1247.9398
 Red. masses --      1.5915                 1.6592                 1.5010
 Frc consts  --      1.4005                 1.5127                 1.3772
 IR Inten    --      8.3247                49.0684                28.8720

                     46                     47                     48
                      A                      A                      A
 Frequencies --   1290.1398              1304.8726              1307.9653
 Red. masses --      1.2025                 1.1817                 1.1858
 Frc consts  --      1.1792                 1.1855                 1.1952
 IR Inten    --      2.8307                20.6701                11.1876

                     49                     50                     51
                      A                      A                      A
 Frequencies --   1329.2265              1340.1781              1343.3117
 Red. masses --      1.3068                 1.2580                 1.2733
 Frc consts  --      1.3604                 1.3312                 1.3537
 IR Inten    --      8.4579                 1.7569                 9.3213

                     52                     53                     54
                      A                      A                      A
 Frequencies --   1359.1259              1365.7019              1371.9763
 Red. masses --      1.2569                 1.4251                 1.3833
 Frc consts  --      1.3679                 1.5660                 1.5341
 IR Inten    --     12.5543                 1.7724                 1.3515

                     55                     56                     57
                      A                      A                      A
 Frequencies --   1382.2579              1391.4276              1399.7642
 Red. masses --      1.4375                 1.4952                 1.2926
 Frc consts  --      1.6182                 1.7056                 1.4922
 IR Inten    --      3.8823                22.7436                22.8842

                     58                     59                     60
                      A                      A                      A
 Frequencies --   1406.8696              1420.5692              1429.6753
 Red. masses --      1.4103                 1.4048                 1.3544
 Frc consts  --      1.6446                 1.6703                 1.6311
 IR Inten    --     22.0457                 5.7409                21.8674

                     61                     62                     63
                      A                      A                      A
 Frequencies --   1444.9184              1480.5998              1488.0926
 Red. masses --      1.4361                 1.0906                 1.0783
 Frc consts  --      1.7666                 1.4087                 1.4069
 IR Inten    --      4.0244                 7.7545                 2.8506

                     64                     65                     66
                      A                      A                      A
 Frequencies --   1493.1794              1494.1896              1501.2837
 Red. masses --      1.0965                 1.1135                 1.0868
 Frc consts  --      1.4404                 1.4647                 1.4431
 IR Inten    --     10.3249                 9.5487                 0.6393

                     67                     68                     69
                      A                      A                      A
 Frequencies --   1503.3071              1514.2426              1522.3479
 Red. masses --      1.0989                 1.1018                 1.0868
 Frc consts  --      1.4633                 1.4884                 1.4840
 IR Inten    --     10.0709                 9.5424                 3.6299

                     70                     71                     72
                      A                      A                      A
 Frequencies --   3017.6312              3019.9992              3054.3855
 Red. masses --      1.0689                 1.0702                 1.0703
 Frc consts  --      5.7350                 5.7509                 5.8830
 IR Inten    --     32.0356               102.6936                22.1567

                     73                     74                     75
                      A                      A                      A
 Frequencies --   3060.5564              3063.2816              3068.1515
 Red. masses --      1.0755                 1.0756                 1.0761
 Frc consts  --      5.9357                 5.9467                 5.9686
 IR Inten    --     48.6406                 8.0102                36.0454

                     76                     77                     78
                      A                      A                      A
 Frequencies --   3070.0869              3076.5839              3078.6596
 Red. masses --      1.0672                 1.0654                 1.0638
 Frc consts  --      5.9265                 5.9418                 5.9405
 IR Inten    --     86.9283                13.2055                43.3088

                     79                     80                     81
                      A                      A                      A
 Frequencies --   3083.3424              3115.4606              3117.7041
 Red. masses --      1.0630                 1.0979                 1.0991
 Frc consts  --      5.9541                 6.2784                 6.2943
 IR Inten    --     45.4020                38.9318                28.9038

                     82                     83                     84
                      A                      A                      A
 Frequencies --   3120.0281              3127.0125              3131.8987
 Red. masses --      1.1030                 1.0957                 1.1019
 Frc consts  --      6.3263                 6.3126                 6.3683
 IR Inten    --     56.9806                43.9064                44.8992

                     85                     86                     87
                      A                      A                      A
 Frequencies --   3133.0143              3136.4003              3145.5411
 Red. masses --      1.0951                 1.1003                 1.0997
 Frc consts  --      6.3330                 6.3770                 6.4110
 IR Inten    --     42.9973                49.7736                44.7406

 - Thermochemistry -
 -------------------
 Temperature   298.150 Kelvin.  Pressure   1.00000 Atm.
 Atom     1 has atomic number  6 and mass  12.00000

 Molecular mass:   186.12559 amu.
 Principal axes and moments of inertia in atomic units:
                           1         2         3
     Eigenvalues --   832.509894623.949455150.87563
           X            0.99996   0.00912   0.00112
           Y           -0.00913   0.99992   0.00910
           Z           -0.00104  -0.00911   0.99996
 This molecule is an asymmetric top.
 Rotational symmetry number  1.
 Warning -- assumption of classical behavior for rotation
           may cause significant error
 Rotational temperatures (Kelvin)      0.10404     0.01873     0.01682
 Rotational constants (GHZ):           2.16783     0.39030     0.35038
    1 imaginary frequencies ignored.
 Zero-point vibrational energy     736417.9 (Joules/Mol)
                                  176.00811 (Kcal/Mol)
 Warning -- explicit consideration of  16 degrees of freedom as
           vibrations may cause significant error
 Vibrational temperatures:     78.39   110.65   158.12   280.34   291.68
          (Kelvin)            355.10   380.31   436.63   504.44   551.83
                              636.57   643.93   683.37   729.54   787.50
                              881.76   912.78   951.51  1128.25  1198.64
                             1211.00  1263.74  1286.28  1292.72  1326.37
                             1355.40  1391.25  1419.76  1432.44  1449.68
                             1513.56  1541.67  1554.95  1561.42  1599.20
                             1654.87  1662.32  1664.10  1681.98  1716.17
                             1739.93  1758.34  1789.76  1795.51  1856.22
                             1877.42  1881.87  1912.46  1928.22  1932.73
                             1955.48  1964.94  1973.97  1988.76  2001.95
                             2013.95  2024.17  2043.88  2056.98  2078.92
                             2130.25  2141.03  2148.35  2149.81  2160.01
                             2162.92  2178.66  2190.32  4341.70  4345.11
                             4394.58  4403.46  4407.38  4414.39  4417.17
                             4426.52  4429.50  4436.24  4482.45  4485.68
                             4489.02  4499.07  4506.10  4507.71  4512.58
                             4525.73

 Zero-point correction=                           0.280487 (Hartree/Particle)
 Thermal correction to Energy=                    0.291545
 Thermal correction to Enthalpy=                  0.292490
 Thermal correction to Gibbs Free Energy=         0.243266
 Sum of electronic and zero-point Energies=           -617.218057
 Sum of electronic and thermal Energies=              -617.206998
 Sum of electronic and thermal Enthalpies=            -617.206054
 Sum of electronic and thermal Free Energies=         -617.255277

                     E (Thermal)             CV                S
                      KCal/Mol        Cal/Mol-Kelvin    Cal/Mol-Kelvin
 Total                  182.948             44.840            103.599
 Electronic               0.000              0.000              0.000
 Translational            0.889              2.981             41.570
 Rotational               0.889              2.981             31.362
 Vibrational            181.170             38.879             30.668
 Vibration     1          0.596              1.976              4.648
 Vibration     2          0.599              1.965              3.968
 Vibration     3          0.606              1.941              3.271
 Vibration     4          0.636              1.847              2.181
 Vibration     5          0.639              1.836              2.108
 Vibration     6          0.661              1.768              1.753
 Vibration     7          0.671              1.738              1.633
 Vibration     8          0.695              1.667              1.398
 Vibration     9          0.728              1.574              1.163
 Vibration    10          0.753              1.505              1.025
 Vibration    11          0.802              1.378              0.819
 Vibration    12          0.807              1.366              0.803
 Vibration    13          0.832              1.306              0.724
 Vibration    14          0.862              1.234              0.641
 Vibration    15          0.903              1.146              0.550
 Vibration    16          0.972              1.005              0.428

 Optimization completed.
    -- Stationary point found.
 Normal termination of Gaussian 16 at Mon Nov  5 02:20:53 2018.
