 Gaussian 16, Revision A.03,
 Gaussian 16:  ES64L-G16RevA.03 25-Dec-2016

 ----------------------------------------------------------------------
 #M062X/6-311++G(2d,2p) opt=ModRedundant freq=noraman SCRF=(Solvent=Wat
 er)
 ----------------------------------------------------------------------

 -----------------------------
 2SO_1_e4_D_PSI.inp_extract_20
 -----------------------------
 Symbolic Z-matrix:
 Charge =  0 Multiplicity = 1

 SCF Done:  E(RM062X) =  -617.495479386     A.U. after   12 cycles
 SCF Done:  E(RM062X) =  -617.497108937     A.U. after   10 cycles
 SCF Done:  E(RM062X) =  -617.497419542     A.U. after   10 cycles
 SCF Done:  E(RM062X) =  -617.497676608     A.U. after   11 cycles
 SCF Done:  E(RM062X) =  -617.497751558     A.U. after    9 cycles
 SCF Done:  E(RM062X) =  -617.497793230     A.U. after    9 cycles
 SCF Done:  E(RM062X) =  -617.497796061     A.U. after    8 cycles
 SCF Done:  E(RM062X) =  -617.497796430     A.U. after    8 cycles
 SCF Done:  E(RM062X) =  -617.497796536     A.U. after    8 cycles
 Optimization completed.
    -- Stationary point found.
 Normal termination of Gaussian 16 at Mon Nov  5 01:29:52 2018.

 ----------------------------------------------------------------------
 #N Geom=AllCheck Guess=TCheck SCRF=Check GenChk RM062X/6-311++G(2d,2p)
  Freq
 ----------------------------------------------------------------------

 Structure from the checkpoint file:  "2SO_1_e4_D_PSI.inp_extract_20.chk"
 -----------------------------
 2SO_1_e4_D_PSI.inp_extract_20
 -----------------------------
 Charge =  0 Multiplicity = 1

                         Standard orientation:
 ---------------------------------------------------------------------
 Center     Atomic      Atomic             Coordinates (Angstroms)
 Number     Number       Type             X           Y           Z
 ---------------------------------------------------------------------
      1          6           0        1.134727   -0.395490   -0.276087
      2          6           0       -3.668859    0.806178    0.441360
      3          6           0       -1.242587   -0.574215   -0.538498
      4          6           0       -2.222880    1.315963    0.462391
      5          6           0       -3.714584   -0.586882   -0.206714
      6          6           0        1.435157    1.070340    0.019462
      7          6           0        2.189982   -1.286241    0.368694
      8          6           0        3.828922    0.391674    0.297428
      9          8           0        3.493348   -0.943974   -0.058001
     10          6           0        2.884105    1.383923   -0.358072
     11          8           0       -0.110173   -0.834931    0.250270
     12          6           0       -2.414101   -1.328525    0.087801
     13          8           0       -1.508923    0.803887   -0.659687
     14          1           0        1.150087   -0.562651   -1.360110
     15          1           0       -4.307673    1.497538   -0.106628
     16          1           0       -4.041097    0.760398    1.465711
     17          1           0       -1.052755   -0.905610   -1.563155
     18          1           0       -2.172165    2.399595    0.393279
     19          1           0       -1.711699    1.014307    1.379857
     20          1           0       -3.829810   -0.487922   -1.286991
     21          1           0       -4.570747   -1.152863    0.155300
     22          1           0        0.740380    1.715689   -0.511040
     23          1           0        1.288310    1.232940    1.091772
     24          1           0        2.022893   -2.326095    0.095162
     25          1           0        2.110954   -1.192366    1.459472
     26          1           0        3.787618    0.494678    1.388789
     27          1           0        4.856660    0.543888   -0.025251
     28          1           0        3.147908    2.396927   -0.053404
     29          1           0        3.008309    1.324445   -1.441767
     30          1           0       -2.253009   -1.385782    1.166303
     31          1           0       -2.427465   -2.347333   -0.294562
 ---------------------------------------------------------------------

 SCF Done:  E(RM062X) =  -617.497796536     A.U. after    1 cycles

 The electronic state is 1-A.
 Alpha  occ. eigenvalues --  -19.63442 -19.63116 -19.62931 -10.63641 -10.58726
 Alpha  occ. eigenvalues --  -10.58044 -10.57982 -10.57867 -10.53205 -10.53166
 Alpha  occ. eigenvalues --  -10.53122 -10.52912 -10.52739  -1.20130  -1.16665
 Alpha  occ. eigenvalues --   -1.13807  -0.90826  -0.89579  -0.87311  -0.84090
 Alpha  occ. eigenvalues --   -0.75184  -0.74218  -0.72944  -0.70251  -0.65726
 Alpha  occ. eigenvalues --   -0.62654  -0.60057  -0.59182  -0.58256  -0.56719
 Alpha  occ. eigenvalues --   -0.55170  -0.52837  -0.52142  -0.49432  -0.49086
 Alpha  occ. eigenvalues --   -0.48082  -0.47625  -0.46055  -0.45336  -0.44151
 Alpha  occ. eigenvalues --   -0.44122  -0.42003  -0.41294  -0.40487  -0.39182
 Alpha  occ. eigenvalues --   -0.38301  -0.37923  -0.35996  -0.35229  -0.34076
 Alpha  occ. eigenvalues --   -0.31908
 Alpha virt. eigenvalues --   -0.00055   0.00741   0.00816   0.01108   0.02149
 Alpha virt. eigenvalues --    0.02441   0.02578   0.03521   0.03669   0.04225
 Alpha virt. eigenvalues --    0.04659   0.04942   0.05373   0.05851   0.06984

 Mulliken charges:
               1
     1  C    0.052698
     2  C   -0.547491
     3  C   -0.240821
     4  C    0.032893
     5  C   -0.223779
     6  C   -0.247814
     7  C   -0.296754
     8  C   -0.214072
     9  O   -0.339848
    10  C   -0.431491
    11  O   -0.297445
    12  C   -0.287785
    13  O   -0.278944
    14  H    0.234635
    15  H    0.160659
    16  H    0.152809
    17  H    0.234300
    18  H    0.207661
    19  H    0.129081
    20  H    0.158355
    21  H    0.190227
    22  H    0.173118
    23  H    0.225261
    24  H    0.197593
    25  H    0.188672
    26  H    0.137186
    27  H    0.215775
    28  H    0.172182
    29  H    0.168668
    30  H    0.195243
    31  H    0.179228
 Sum of Mulliken charges =  -0.00000

 Dipole moment (field-independent basis, Debye):
    X=             -1.9966    Y=              1.3685    Z=              0.8101  Tot=              2.5525
 Quadrupole moment (field-independent basis, Debye-Ang):
   XX=            -78.7893   YY=            -79.4754   ZZ=            -79.9891
   XY=              7.6565   XZ=              0.0470   YZ=              2.7721

  Exact polarizability: 176.460   1.914 160.637  -0.813   1.983 149.087
 Approx polarizability: 145.865   0.538 143.519  -1.360   0.982 142.703

 ******    1 imaginary frequencies (negative Signs) ******

                      1                      2                      3
                      A                      A                      A
 Frequencies --    -27.7735                47.1744                96.3085
 Red. masses --      3.4336                 3.6937                 3.6117
 Frc consts  --      0.0016                 0.0048                 0.0197
 IR Inten    --      1.4238                 0.2938                 1.2497

                      4                      5                      6
                      A                      A                      A
 Frequencies --    107.1700               190.6309               220.5197
 Red. masses --      2.8624                 1.9342                 3.1249
 Frc consts  --      0.0194                 0.0414                 0.0895
 IR Inten    --      3.8005                 0.8332                 2.5342

                      7                      8                      9
                      A                      A                      A
 Frequencies --    240.3875               269.5033               273.1372
 Red. masses --      1.9752                 4.3816                 2.6355
 Frc consts  --      0.0672                 0.1875                 0.1158
 IR Inten    --      4.5827                 0.7855                 3.5062

                     10                     11                     12
                      A                      A                      A
 Frequencies --    339.6689               383.9227               437.3649
 Red. masses --      2.9583                 2.2975                 3.9998
 Frc consts  --      0.2011                 0.1995                 0.4508
 IR Inten    --     15.5844                15.6250                 3.2821

                     13                     14                     15
                      A                      A                      A
 Frequencies --    448.3575               475.0323               510.6789
 Red. masses --      2.6146                 3.0278                 2.5538
 Frc consts  --      0.3097                 0.4025                 0.3924
 IR Inten    --      6.2227                 0.6097                 5.8461

                     16                     17                     18
                      A                      A                      A
 Frequencies --    547.1255               619.1978               635.5799
 Red. masses --      3.4862                 2.9733                 2.0034
 Frc consts  --      0.6149                 0.6717                 0.4768
 IR Inten    --      1.7689                14.5203                 6.4596

                     19                     20                     21
                      A                      A                      A
 Frequencies --    656.1424               781.9615               827.6922
 Red. masses --      4.1096                 1.2984                 2.2074
 Frc consts  --      1.0424                 0.4678                 0.8910
 IR Inten    --     10.7035                 6.0213                 0.3124

                     22                     23                     24
                      A                      A                      A
 Frequencies --    842.3604               876.1154               894.6114
 Red. masses --      2.5730                 1.4094                 2.5924
 Frc consts  --      1.0757                 0.6374                 1.2224
 IR Inten    --      8.1516                12.0109                12.1029

                     25                     26                     27
                      A                      A                      A
 Frequencies --    899.8646               920.6200               942.4269
 Red. masses --      2.3971                 2.1679                 2.2098
 Frc consts  --      1.1437                 1.0826                 1.1564
 IR Inten    --      7.7335                36.5250                51.0180

                     28                     29                     30
                      A                      A                      A
 Frequencies --    965.1655               984.2181               997.5320
 Red. masses --      1.8145                 2.2581                 1.5068
 Frc consts  --      0.9959                 1.2888                 0.8834
 IR Inten    --      9.2690                30.5420                 5.0535

                     31                     32                     33
                      A                      A                      A
 Frequencies --   1007.4558              1056.8570              1071.9397
 Red. masses --      2.0007                 1.6939                 1.9257
 Frc consts  --      1.1964                 1.1147                 1.3037
 IR Inten    --      5.4267                 3.7170               180.3874

                     34                     35                     36
                      A                      A                      A
 Frequencies --   1076.5274              1081.3373              1114.4496
 Red. masses --      3.4012                 2.1529                 4.6669
 Frc consts  --      2.3224                 1.4832                 3.4150
 IR Inten    --     70.7411                 8.5014               300.0354

                     37                     38                     39
                      A                      A                      A
 Frequencies --   1147.8074              1155.5657              1162.4414
 Red. masses --      2.4980                 2.7461                 3.7016
 Frc consts  --      1.9390                 2.1605                 2.9470
 IR Inten    --     18.3578                43.6520               329.0288

                     40                     41                     42
                      A                      A                      A
 Frequencies --   1172.4173              1189.0735              1210.1978
 Red. masses --      2.2958                 2.3328                 1.5064
 Frc consts  --      1.8593                 1.9433                 1.2999
 IR Inten    --     14.6595                49.7178                22.6128

                     43                     44                     45
                      A                      A                      A
 Frequencies --   1219.0484              1244.3386              1246.4269
 Red. masses --      1.4982                 1.6735                 1.5016
 Frc consts  --      1.3118                 1.5267                 1.3745
 IR Inten    --      8.5221                57.7060                14.2561

                     46                     47                     48
                      A                      A                      A
 Frequencies --   1290.0053              1302.5853              1306.9341
 Red. masses --      1.1994                 1.1790                 1.1799
 Frc consts  --      1.1760                 1.1786                 1.1874
 IR Inten    --      3.5249                22.3106                 9.7311

                     49                     50                     51
                      A                      A                      A
 Frequencies --   1329.9413              1336.2777              1343.9941
 Red. masses --      1.2847                 1.2296                 1.2901
 Frc consts  --      1.3388                 1.2936                 1.3729
 IR Inten    --      9.7951                 5.4825                12.5677

                     52                     53                     54
                      A                      A                      A
 Frequencies --   1352.6155              1365.4198              1372.2118
 Red. masses --      1.2654                 1.4289                 1.3836
 Frc consts  --      1.3641                 1.5696                 1.5349
 IR Inten    --     15.4586                 2.1230                 1.2036

                     55                     56                     57
                      A                      A                      A
 Frequencies --   1382.9171              1393.3209              1400.3996
 Red. masses --      1.4454                 1.4740                 1.3302
 Frc consts  --      1.6287                 1.6860                 1.5370
 IR Inten    --      9.5083                19.1454                21.9543

                     58                     59                     60
                      A                      A                      A
 Frequencies --   1404.7537              1419.5495              1428.5905
 Red. masses --      1.4242                 1.4280                 1.3412
 Frc consts  --      1.6558                 1.6954                 1.6127
 IR Inten    --     21.1920                 9.7497                16.1909

                     61                     62                     63
                      A                      A                      A
 Frequencies --   1441.2402              1479.8729              1486.6851
 Red. masses --      1.4422                 1.0921                 1.0786
 Frc consts  --      1.7650                 1.4092                 1.4046
 IR Inten    --      4.5769                 8.5818                 2.5732

                     64                     65                     66
                      A                      A                      A
 Frequencies --   1493.2464              1496.0839              1501.4800
 Red. masses --      1.0949                 1.1090                 1.0874
 Frc consts  --      1.4384                 1.4625                 1.4444
 IR Inten    --      9.2706                 9.8855                 0.3934

                     67                     68                     69
                      A                      A                      A
 Frequencies --   1502.1651              1514.0810              1522.0603
 Red. masses --      1.0987                 1.1014                 1.0871
 Frc consts  --      1.4607                 1.4876                 1.4838
 IR Inten    --     10.7164                 8.1323                 4.0509

                     70                     71                     72
                      A                      A                      A
 Frequencies --   3014.2680              3019.6876              3026.3347
 Red. masses --      1.0721                 1.0706                 1.0795
 Frc consts  --      5.7390                 5.7517                 5.8250
 IR Inten    --     18.6806                81.0931                74.4957

                     73                     74                     75
                      A                      A                      A
 Frequencies --   3053.9037              3059.5362              3062.9130
 Red. masses --      1.0711                 1.0800                 1.0740
 Frc consts  --      5.8857                 5.9563                 5.9362
 IR Inten    --     35.7942                97.0810                 7.7859

                     76                     77                     78
                      A                      A                      A
 Frequencies --   3068.9912              3075.7224              3079.0766
 Red. masses --      1.0621                 1.0672                 1.0616
 Frc consts  --      5.8939                 5.9483                 5.9302
 IR Inten    --     54.5027                 9.7334                48.4024

                     79                     80                     81
                      A                      A                      A
 Frequencies --   3082.8635              3117.3446              3117.8503
 Red. masses --      1.0636                 1.1010                 1.0992
 Frc consts  --      5.9556                 6.3041                 6.2953
 IR Inten    --     44.5878                50.8010                29.5072

                     82                     83                     84
                      A                      A                      A
 Frequencies --   3131.8813              3132.5402              3135.2647
 Red. masses --      1.1016                 1.0941                 1.0954
 Frc consts  --      6.3663                 6.3259                 6.3439
 IR Inten    --     43.5063                51.6514                25.7213

                     85                     86                     87
                      A                      A                      A
 Frequencies --   3135.5763              3143.9784              3151.4235
 Red. masses --      1.0999                 1.1003                 1.0941
 Frc consts  --      6.3712                 6.4079                 6.4020
 IR Inten    --     60.5593                51.1671                15.6331

 - Thermochemistry -
 -------------------
 Temperature   298.150 Kelvin.  Pressure   1.00000 Atm.
 Atom     1 has atomic number  6 and mass  12.00000

 Molecular mass:   186.12559 amu.
 Principal axes and moments of inertia in atomic units:
                           1         2         3
     Eigenvalues --   837.882444578.258385119.76960
           X            0.99994   0.01080  -0.00102
           Y           -0.01078   0.99984   0.01414
           Z            0.00118  -0.01413   0.99990
 This molecule is an asymmetric top.
 Rotational symmetry number  1.
 Warning -- assumption of classical behavior for rotation
           may cause significant error
 Rotational temperatures (Kelvin)      0.10337     0.01892     0.01692
 Rotational constants (GHZ):           2.15393     0.39420     0.35250
    1 imaginary frequencies ignored.
 Zero-point vibrational energy     736073.9 (Joules/Mol)
                                  175.92588 (Kcal/Mol)
 Warning -- explicit consideration of  16 degrees of freedom as
           vibrations may cause significant error
 Vibrational temperatures:     67.87   138.57   154.19   274.28   317.28
          (Kelvin)            345.86   387.76   392.98   488.71   552.38
                              629.27   645.09   683.47   734.75   787.19
                              890.89   914.46   944.04  1125.07  1190.86
                             1211.97  1260.53  1287.15  1294.70  1324.57
                             1355.94  1388.66  1416.07  1435.23  1449.50
                             1520.58  1542.28  1548.88  1555.80  1603.44
                             1651.44  1662.60  1672.49  1686.85  1710.81
                             1741.20  1753.94  1790.33  1793.33  1856.03
                             1874.13  1880.39  1913.49  1922.61  1933.71
                             1946.11  1964.53  1974.31  1989.71  2004.68
                             2014.86  2021.13  2042.42  2055.42  2073.62
                             2129.21  2139.01  2148.45  2152.53  2160.29
                             2161.28  2178.42  2189.91  4336.86  4344.66
                             4354.22  4393.89  4401.99  4406.85  4415.59
                             4425.28  4430.10  4435.55  4485.16  4485.89
                             4506.08  4507.03  4510.95  4511.39  4523.48
                             4534.20

 Zero-point correction=                           0.280356 (Hartree/Particle)
 Thermal correction to Energy=                    0.291432
 Thermal correction to Enthalpy=                  0.292376
 Thermal correction to Gibbs Free Energy=         0.243144
 Sum of electronic and zero-point Energies=           -617.217441
 Sum of electronic and thermal Energies=              -617.206364
 Sum of electronic and thermal Enthalpies=            -617.205420
 Sum of electronic and thermal Free Energies=         -617.254653

                     E (Thermal)             CV                S
                      KCal/Mol        Cal/Mol-Kelvin    Cal/Mol-Kelvin
 Total                  182.876             44.910            103.619
 Electronic               0.000              0.000              0.000
 Translational            0.889              2.981             41.570
 Rotational               0.889              2.981             31.352
 Vibrational            181.099             38.948             30.697
 Vibration     1          0.595              1.979              4.932
 Vibration     2          0.603              1.952              3.528
 Vibration     3          0.606              1.943              3.320
 Vibration     4          0.634              1.853              2.222
 Vibration     5          0.647              1.810              1.955
 Vibration     6          0.657              1.779              1.800
 Vibration     7          0.674              1.729              1.599
 Vibration     8          0.676              1.723              1.576
 Vibration     9          0.720              1.596              1.214
 Vibration    10          0.753              1.504              1.024
 Vibration    11          0.798              1.389              0.835
 Vibration    12          0.807              1.365              0.801
 Vibration    13          0.832              1.305              0.724
 Vibration    14          0.866              1.226              0.632
 Vibration    15          0.902              1.146              0.550
 Vibration    16          0.979              0.991              0.418

 Optimization completed.
    -- Stationary point found.
 Normal termination of Gaussian 16 at Mon Nov  5 02:25:24 2018.
