 Gaussian 16, Revision A.03,
 Gaussian 16:  ES64L-G16RevA.03 25-Dec-2016

 ----------------------------------------------------------------------
 #M062X/6-311++G(2d,2p) opt=ModRedundant freq=noraman SCRF=(Solvent=Wat
 er)
 ----------------------------------------------------------------------

 ----------------------------
 2SO_1_e4_D_PSI.inp_extract_7
 ----------------------------
 Symbolic Z-matrix:
 Charge =  0 Multiplicity = 1

 SCF Done:  E(RM062X) =  -617.489390756     A.U. after   12 cycles
 SCF Done:  E(RM062X) =  -617.490805220     A.U. after   11 cycles
 SCF Done:  E(RM062X) =  -617.491196844     A.U. after   11 cycles
 SCF Done:  E(RM062X) =  -617.491374027     A.U. after   10 cycles
 SCF Done:  E(RM062X) =  -617.491405683     A.U. after    9 cycles
 SCF Done:  E(RM062X) =  -617.491414326     A.U. after    9 cycles
 SCF Done:  E(RM062X) =  -617.491415640     A.U. after    9 cycles
 SCF Done:  E(RM062X) =  -617.491416146     A.U. after    7 cycles
 Optimization completed.
    -- Stationary point found.
 Normal termination of Gaussian 16 at Mon Nov  5 01:32:45 2018.

 ----------------------------------------------------------------------
 #N Geom=AllCheck Guess=TCheck SCRF=Check GenChk RM062X/6-311++G(2d,2p)
  Freq
 ----------------------------------------------------------------------

 Structure from the checkpoint file:  "2SO_1_e4_D_PSI.inp_extract_7.chk"
 ----------------------------
 2SO_1_e4_D_PSI.inp_extract_7
 ----------------------------
 Charge =  0 Multiplicity = 1

                         Standard orientation:
 ---------------------------------------------------------------------
 Center     Atomic      Atomic             Coordinates (Angstroms)
 Number     Number       Type             X           Y           Z
 ---------------------------------------------------------------------
      1          6           0        1.194808    0.212875   -0.613218
      2          6           0       -3.843923   -0.525192   -0.162692
      3          6           0       -1.058686    0.345855    0.338811
      4          6           0       -2.560044   -1.097388   -0.771566
      5          6           0       -3.494023    0.643970    0.772609
      6          6           0        2.162366    1.330024   -0.245379
      7          6           0        1.429284   -1.002304    0.288953
      8          6           0        3.698420   -0.443996    0.594224
      9          8           0        2.773790   -1.430450    0.155084
     10          6           0        3.598947    0.810968   -0.256296
     11          8           0       -0.134949    0.739498   -0.640619
     12          6           0       -2.224665    1.329129    0.276160
     13          8           0       -1.483987   -0.988767    0.157381
     14          1           0        1.406742   -0.114206   -1.634696
     15          1           0       -4.381620   -1.298432    0.384417
     16          1           0       -4.493693   -0.185381   -0.970345
     17          1           0       -0.601015    0.359757    1.329328
     18          1           0       -2.658602   -2.153780   -1.007446
     19          1           0       -2.294193   -0.572148   -1.691885
     20          1           0       -3.321947    0.269978    1.783011
     21          1           0       -4.317571    1.352970    0.830591
     22          1           0        2.035272    2.161318   -0.938520
     23          1           0        1.903359    1.691393    0.755089
     24          1           0        0.797471   -1.835517   -0.001347
     25          1           0        1.229572   -0.757460    1.338283
     26          1           0        3.498864   -0.205709    1.646170
     27          1           0        4.684613   -0.897927    0.524530
     28          1           0        4.288150    1.567554    0.118987
     29          1           0        3.898445    0.568419   -1.278143
     30          1           0       -2.351965    1.654090   -0.758497
     31          1           0       -1.975615    2.209197    0.866067
 ---------------------------------------------------------------------

 SCF Done:  E(RM062X) =  -617.491416146     A.U. after    1 cycles

 The electronic state is 1-A.
 Alpha  occ. eigenvalues --  -19.63192 -19.63174 -19.62936 -10.63681 -10.58854
 Alpha  occ. eigenvalues --  -10.58134 -10.58038 -10.57871 -10.53219 -10.53207
 Alpha  occ. eigenvalues --  -10.53176 -10.53095 -10.52898  -1.19827  -1.16634
 Alpha  occ. eigenvalues --   -1.13531  -0.90815  -0.89765  -0.86968  -0.84556
 Alpha  occ. eigenvalues --   -0.75342  -0.74624  -0.73017  -0.70153  -0.65774
 Alpha  occ. eigenvalues --   -0.62217  -0.60786  -0.59140  -0.57792  -0.56522
 Alpha  occ. eigenvalues --   -0.55069  -0.52984  -0.51824  -0.50448  -0.49065
 Alpha  occ. eigenvalues --   -0.48251  -0.46914  -0.45773  -0.45453  -0.44360
 Alpha  occ. eigenvalues --   -0.44016  -0.42696  -0.41476  -0.40480  -0.39568
 Alpha  occ. eigenvalues --   -0.38535  -0.37800  -0.35938  -0.34314  -0.33769
 Alpha  occ. eigenvalues --   -0.32246
 Alpha virt. eigenvalues --   -0.00124   0.00702   0.00814   0.01167   0.02069
 Alpha virt. eigenvalues --    0.02376   0.02517   0.03564   0.03690   0.04252
 Alpha virt. eigenvalues --    0.04508   0.04629   0.05573   0.05822   0.07147

 Mulliken charges:
               1
     1  C   -0.216840
     2  C   -0.502093
     3  C   -0.137354
     4  C   -0.031992
     5  C   -0.184295
     6  C   -0.105838
     7  C   -0.306123
     8  C   -0.162786
     9  O   -0.353612
    10  C   -0.379843
    11  O   -0.315508
    12  C   -0.396764
    13  O   -0.292201
    14  H    0.251239
    15  H    0.160711
    16  H    0.148641
    17  H    0.255604
    18  H    0.202116
    19  H    0.151072
    20  H    0.156172
    21  H    0.196608
    22  H    0.178821
    23  H    0.178556
    24  H    0.226544
    25  H    0.223709
    26  H    0.131477
    27  H    0.211431
    28  H    0.171315
    29  H    0.167444
    30  H    0.205795
    31  H    0.167992
 Sum of Mulliken charges =  -0.00000

 Dipole moment (field-independent basis, Debye):
    X=             -0.9468    Y=              2.2163    Z=              0.8537  Tot=              2.5568
 Quadrupole moment (field-independent basis, Debye-Ang):
   XX=            -69.9952   YY=            -84.7582   ZZ=            -78.8196
   XY=              5.6730   XZ=              2.6083   YZ=              2.7120

  Exact polarizability: 180.651   3.017 155.664  -0.592   2.040 149.452
 Approx polarizability: 148.706   1.291 141.736  -0.112   1.129 141.534

 ******    1 imaginary frequencies (negative Signs) ******

                      1                      2                      3
                      A                      A                      A
 Frequencies --    -72.1966                58.6069                86.3111
 Red. masses --      3.4702                 4.0911                 3.5030
 Frc consts  --      0.0107                 0.0083                 0.0154
 IR Inten    --      0.2340                 2.1592                 2.8951

                      4                      5                      6
                      A                      A                      A
 Frequencies --    117.2958               183.2584               213.4351
 Red. masses --      2.9099                 2.2209                 2.5649
 Frc consts  --      0.0236                 0.0439                 0.0688
 IR Inten    --      0.2991                 1.2172                 2.9819

                      7                      8                      9
                      A                      A                      A
 Frequencies --    240.2010               264.0020               292.8366
 Red. masses --      1.9796                 3.0915                 4.1024
 Frc consts  --      0.0673                 0.1269                 0.2073
 IR Inten    --      4.1994                 0.8973                 7.7247

                     10                     11                     12
                      A                      A                      A
 Frequencies --    337.7069               379.4620               433.4695
 Red. masses --      2.5854                 2.4788                 2.7005
 Frc consts  --      0.1737                 0.2103                 0.2990
 IR Inten    --      7.2829                18.0542                 2.1328

                     13                     14                     15
                      A                      A                      A
 Frequencies --    451.2733               468.3051               498.8330
 Red. masses --      3.4877                 2.9311                 3.1887
 Frc consts  --      0.4185                 0.3787                 0.4675
 IR Inten    --      4.2698                 3.6143                 2.3450

                     16                     17                     18
                      A                      A                      A
 Frequencies --    550.8950               613.8639               631.2284
 Red. masses --      2.3191                 5.3415                 2.0091
 Frc consts  --      0.4147                 1.1859                 0.4717
 IR Inten    --      4.3063                 5.4748                10.4667

                     19                     20                     21
                      A                      A                      A
 Frequencies --    654.5679               782.2648               821.4404
 Red. masses --      3.4434                 1.2981                 2.1866
 Frc consts  --      0.8693                 0.4680                 0.8693
 IR Inten    --      6.2782                 6.2060                 0.5319

                     22                     23                     24
                      A                      A                      A
 Frequencies --    842.4055               873.4659               891.2192
 Red. masses --      2.6230                 1.4031                 2.7033
 Frc consts  --      1.0967                 0.6307                 1.2651
 IR Inten    --     10.0793                10.1925                 0.7858

                     25                     26                     27
                      A                      A                      A
 Frequencies --    897.8461               920.6531               941.2488
 Red. masses --      2.4873                 2.1149                 2.2433
 Frc consts  --      1.1813                 1.0562                 1.1710
 IR Inten    --     30.3660                31.7996                32.8496

                     28                     29                     30
                      A                      A                      A
 Frequencies --    968.3598               979.9811               995.2199
 Red. masses --      1.7993                 1.8840                 1.7930
 Frc consts  --      0.9941                 1.0661                 1.0463
 IR Inten    --     14.7586                15.9366                27.5159

                     31                     32                     33
                      A                      A                      A
 Frequencies --   1008.6728              1036.5610              1052.9293
 Red. masses --      2.1615                 2.6905                 1.7216
 Frc consts  --      1.2957                 1.7033                 1.1246
 IR Inten    --     10.8954                96.8855                69.1116

                     34                     35                     36
                      A                      A                      A
 Frequencies --   1073.6665              1083.5836              1117.2937
 Red. masses --      1.8309                 2.2080                 4.4076
 Frc consts  --      1.2435                 1.5275                 3.2418
 IR Inten    --    163.2652                 7.4058               348.6685

                     37                     38                     39
                      A                      A                      A
 Frequencies --   1142.9296              1158.1106              1168.2083
 Red. masses --      3.1112                 2.9046                 3.8345
 Frc consts  --      2.3945                 2.2953                 3.0831
 IR Inten    --    157.3264                83.0533                93.5364

                     40                     41                     42
                      A                      A                      A
 Frequencies --   1172.7369              1187.2062              1210.7029
 Red. masses --      2.2138                 2.4081                 1.4723
 Frc consts  --      1.7938                 1.9998                 1.2715
 IR Inten    --     13.8403                29.9647                37.6563

                     43                     44                     45
                      A                      A                      A
 Frequencies --   1216.8864              1244.5487              1249.5234
 Red. masses --      1.4476                 1.6424                 1.5228
 Frc consts  --      1.2630                 1.4988                 1.4009
 IR Inten    --      7.1220                32.2085                22.4806

                     46                     47                     48
                      A                      A                      A
 Frequencies --   1289.6797              1305.2836              1309.6211
 Red. masses --      1.2051                 1.1638                 1.1719
 Frc consts  --      1.1809                 1.1683                 1.1843
 IR Inten    --      2.1617                26.8458                11.1350

                     49                     50                     51
                      A                      A                      A
 Frequencies --   1335.1414              1345.0777              1350.0601
 Red. masses --      1.3020                 1.2917                 1.3178
 Frc consts  --      1.3675                 1.3769                 1.4151
 IR Inten    --      6.4531                 3.1098                 2.1085

                     52                     53                     54
                      A                      A                      A
 Frequencies --   1367.6507              1368.5880              1372.3048
 Red. masses --      1.3324                 1.3310                 1.3609
 Frc consts  --      1.4684                 1.4689                 1.5100
 IR Inten    --      7.8007                 5.8189                 0.3642

                     55                     56                     57
                      A                      A                      A
 Frequencies --   1383.7247              1397.4880              1401.6468
 Red. masses --      1.4360                 1.4114                 1.2783
 Frc consts  --      1.6200                 1.6240                 1.4796
 IR Inten    --      0.3778                43.4538                 0.9633

                     58                     59                     60
                      A                      A                      A
 Frequencies --   1412.5194              1418.9751              1426.3625
 Red. masses --      1.3626                 1.4039                 1.3632
 Frc consts  --      1.6018                 1.6654                 1.6340
 IR Inten    --      7.5142                13.7678                12.2605

                     61                     62                     63
                      A                      A                      A
 Frequencies --   1436.9170              1479.0745              1487.7142
 Red. masses --      1.3837                 1.0936                 1.0787
 Frc consts  --      1.6833                 1.4096                 1.4067
 IR Inten    --     21.1856                 7.3684                 2.5586

                     64                     65                     66
                      A                      A                      A
 Frequencies --   1493.7494              1494.0260              1501.8991
 Red. masses --      1.1093                 1.0965                 1.0831
 Frc consts  --      1.4583                 1.4420                 1.4395
 IR Inten    --      5.6604                13.7006                 1.3992

                     67                     68                     69
                      A                      A                      A
 Frequencies --   1503.5708              1514.6449              1524.8030
 Red. masses --      1.0987                 1.1005                 1.0863
 Frc consts  --      1.4635                 1.4875                 1.4881
 IR Inten    --     10.1048                 8.4551                 4.0081

                     70                     71                     72
                      A                      A                      A
 Frequencies --   3020.9767              3031.9419              3045.4486
 Red. masses --      1.0705                 1.0713                 1.0698
 Frc consts  --      5.7562                 5.8025                 5.8457
 IR Inten    --     67.8649                32.1272                 8.1566

                     73                     74                     75
                      A                      A                      A
 Frequencies --   3061.6390              3062.5622              3069.5051
 Red. masses --      1.0808                 1.0691                 1.0624
 Frc consts  --      5.9690                 5.9080                 5.8975
 IR Inten    --     79.0264                46.5633                49.1139

                     76                     77                     78
                      A                      A                      A
 Frequencies --   3074.3412              3077.8796              3081.6162
 Red. masses --      1.0663                 1.0637                 1.0644
 Frc consts  --      5.9381                 5.9369                 5.9553
 IR Inten    --     18.2585                41.2735                34.8730

                     79                     80                     81
                      A                      A                      A
 Frequencies --   3089.2907              3115.4758              3116.5923
 Red. masses --      1.0828                 1.0963                 1.0995
 Frc consts  --      6.0887                 6.2693                 6.2920
 IR Inten    --     57.0876                40.1540                31.6644

                     82                     83                     84
                      A                      A                      A
 Frequencies --   3120.0665              3132.0733              3134.0053
 Red. masses --      1.1024                 1.1014                 1.0947
 Frc consts  --      6.3232                 6.3660                 6.3350
 IR Inten    --     54.1751                46.0958                47.1958

                     85                     86                     87
                      A                      A                      A
 Frequencies --   3135.5538              3145.5069              3170.4311
 Red. masses --      1.0999                 1.0996                 1.0943
 Frc consts  --      6.3715                 6.4104                 6.4806
 IR Inten    --     52.1460                45.9584                18.1309

 - Thermochemistry -
 -------------------
 Temperature   298.150 Kelvin.  Pressure   1.00000 Atm.
 Atom     1 has atomic number  6 and mass  12.00000

 Molecular mass:   186.12559 amu.
 Principal axes and moments of inertia in atomic units:
                           1         2         3
     Eigenvalues --   843.861944576.378685005.23681
           X            0.99997   0.00695   0.00150
           Y           -0.00698   0.99973   0.02204
           Z           -0.00135  -0.02205   0.99976
 This molecule is an asymmetric top.
 Rotational symmetry number  1.
 Warning -- assumption of classical behavior for rotation
           may cause significant error
 Rotational temperatures (Kelvin)      0.10264     0.01893     0.01730
 Rotational constants (GHZ):           2.13867     0.39436     0.36057
    1 imaginary frequencies ignored.
 Zero-point vibrational energy     736413.0 (Joules/Mol)
                                  176.00694 (Kcal/Mol)
 Warning -- explicit consideration of  16 degrees of freedom as
           vibrations may cause significant error
 Vibrational temperatures:     84.32   124.18   168.76   263.67   307.09
          (Kelvin)            345.60   379.84   421.33   485.88   545.96
                              623.67   649.28   673.79   717.71   792.62
                              883.21   908.20   941.78  1125.50  1181.87
                             1212.03  1256.72  1282.27  1291.80  1324.61
                             1354.25  1393.25  1409.97  1431.90  1451.26
                             1491.38  1514.93  1544.77  1559.04  1607.54
                             1644.42  1666.26  1680.79  1687.31  1708.12
                             1741.93  1750.83  1790.63  1797.79  1855.56
                             1878.01  1884.25  1920.97  1935.27  1942.44
                             1967.74  1969.09  1974.44  1990.87  2010.67
                             2016.66  2032.30  2041.59  2052.22  2067.40
                             2128.06  2140.49  2149.17  2149.57  2160.90
                             2163.30  2179.24  2193.85  4346.51  4362.29
                             4381.72  4405.02  4406.34  4416.33  4423.29
                             4428.38  4433.76  4444.80  4482.47  4484.08
                             4489.08  4506.35  4509.13  4511.36  4525.68
                             4561.54

 Zero-point correction=                           0.280485 (Hartree/Particle)
 Thermal correction to Energy=                    0.291574
 Thermal correction to Enthalpy=                  0.292518
 Thermal correction to Gibbs Free Energy=         0.243404
 Sum of electronic and zero-point Energies=           -617.210931
 Sum of electronic and thermal Energies=              -617.199842
 Sum of electronic and thermal Enthalpies=            -617.198898
 Sum of electronic and thermal Free Energies=         -617.248012

                     E (Thermal)             CV                S
                      KCal/Mol        Cal/Mol-Kelvin    Cal/Mol-Kelvin
 Total                  182.965             45.006            103.369
 Electronic               0.000              0.000              0.000
 Translational            0.889              2.981             41.570
 Rotational               0.889              2.981             31.336
 Vibrational            181.188             39.044             30.463
 Vibration     1          0.596              1.974              4.504
 Vibration     2          0.601              1.959              3.742
 Vibration     3          0.608              1.935              3.144
 Vibration     4          0.631              1.863              2.295
 Vibration     5          0.644              1.820              2.014
 Vibration     6          0.657              1.779              1.801
 Vibration     7          0.671              1.739              1.635
 Vibration     8          0.688              1.687              1.458
 Vibration     9          0.718              1.600              1.223
 Vibration    10          0.749              1.514              1.041
 Vibration    11          0.794              1.397              0.847
 Vibration    12          0.810              1.358              0.792
 Vibration    13          0.825              1.320              0.742
 Vibration    14          0.854              1.253              0.661
 Vibration    15          0.906              1.138              0.542
 Vibration    16          0.973              1.003              0.426

                           ! Non-Optimized Parameters !
 Normal termination of Gaussian 16 at Mon Nov  5 02:27:33 2018.
