 Gaussian 16, Revision A.03,
 Gaussian 16:  ES64L-G16RevA.03 25-Dec-2016

 ----------------------------------------------------------------------
 #M062X/6-311++G(2d,2p) opt=ModRedundant freq=noraman SCRF=(Solvent=Wat
 er)
 ----------------------------------------------------------------------

 ----------------------------
 2SO_1_e4_D_PSI.inp_extract_8
 ----------------------------
 Symbolic Z-matrix:
 Charge =  0 Multiplicity = 1

 SCF Done:  E(RM062X) =  -617.491278471     A.U. after   12 cycles
 SCF Done:  E(RM062X) =  -617.492779631     A.U. after   11 cycles
 SCF Done:  E(RM062X) =  -617.493221848     A.U. after   11 cycles
 SCF Done:  E(RM062X) =  -617.493399714     A.U. after   10 cycles
 SCF Done:  E(RM062X) =  -617.493437429     A.U. after    9 cycles
 SCF Done:  E(RM062X) =  -617.493448322     A.U. after    9 cycles
 SCF Done:  E(RM062X) =  -617.493449716     A.U. after    9 cycles
 SCF Done:  E(RM062X) =  -617.493450202     A.U. after    7 cycles
 Optimization completed.
    -- Stationary point found.
 Normal termination of Gaussian 16 at Mon Nov  5 01:33:03 2018.

 ----------------------------------------------------------------------
 #N Geom=AllCheck Guess=TCheck SCRF=Check GenChk RM062X/6-311++G(2d,2p)
  Freq
 ----------------------------------------------------------------------

 Structure from the checkpoint file:  "2SO_1_e4_D_PSI.inp_extract_8.chk"
 ----------------------------
 2SO_1_e4_D_PSI.inp_extract_8
 ----------------------------
 Charge =  0 Multiplicity = 1

                         Standard orientation:
 ---------------------------------------------------------------------
 Center     Atomic      Atomic             Coordinates (Angstroms)
 Number     Number       Type             X           Y           Z
 ---------------------------------------------------------------------
      1          6           0        1.204160    0.234183   -0.688161
      2          6           0       -3.798099   -0.580604   -0.033593
      3          6           0       -1.025751    0.413593    0.263981
      4          6           0       -2.515982   -1.194275   -0.604827
      5          6           0       -3.455438    0.705269    0.736608
      6          6           0        2.096998    1.342068   -0.143354
      7          6           0        1.408547   -1.065063    0.094962
      8          6           0        3.614099   -0.461818    0.667040
      9          8           0        2.777797   -1.430389    0.048326
     10          6           0        3.546400    0.864425   -0.070939
     11          8           0       -0.142621    0.699256   -0.789621
     12          6           0       -2.219891    1.353441    0.119507
     13          8           0       -1.418428   -0.941491    0.269185
     14          1           0        1.506501    0.024405   -1.717127
     15          1           0       -4.299025   -1.291238    0.622470
     16          1           0       -4.478892   -0.361189   -0.857195
     17          1           0       -0.531726    0.564186    1.226782
     18          1           0       -2.591118   -2.274244   -0.701527
     19          1           0       -2.290802   -0.784406   -1.592064
     20          1           0       -3.245280    0.466215    1.780184
     21          1           0       -4.296667    1.395637    0.730646
     22          1           0        1.999685    2.224511   -0.775059
     23          1           0        1.747381    1.612779    0.858402
     24          1           0        0.845059   -1.880216   -0.348823
     25          1           0        1.093999   -0.953188    1.138492
     26          1           0        3.304056   -0.330976    1.711157
     27          1           0        4.620375   -0.875159    0.655400
     28          1           0        4.173547    1.600660    0.431988
     29          1           0        3.942666    0.725798   -1.079179
     30          1           0       -2.385968    1.544409   -0.942767
     31          1           0       -1.978030    2.305698    0.587763
 ---------------------------------------------------------------------

 SCF Done:  E(RM062X) =  -617.493450202     A.U. after    1 cycles

 The electronic state is 1-A.
 Alpha  occ. eigenvalues --  -19.63280 -19.63103 -19.62954 -10.63665 -10.58822
 Alpha  occ. eigenvalues --  -10.58084 -10.58025 -10.57882 -10.53226 -10.53218
 Alpha  occ. eigenvalues --  -10.53179 -10.53124 -10.52904  -1.19925  -1.16568
 Alpha  occ. eigenvalues --   -1.13617  -0.90756  -0.89751  -0.86978  -0.84531
 Alpha  occ. eigenvalues --   -0.75292  -0.74504  -0.73174  -0.70253  -0.65790
 Alpha  occ. eigenvalues --   -0.62175  -0.60743  -0.59049  -0.57827  -0.56531
 Alpha  occ. eigenvalues --   -0.54864  -0.53034  -0.52036  -0.50214  -0.48885
 Alpha  occ. eigenvalues --   -0.48550  -0.46907  -0.45860  -0.45467  -0.44320
 Alpha  occ. eigenvalues --   -0.44033  -0.42352  -0.41814  -0.40405  -0.39488
 Alpha  occ. eigenvalues --   -0.38595  -0.37845  -0.35956  -0.34246  -0.34108
 Alpha  occ. eigenvalues --   -0.32090
 Alpha virt. eigenvalues --   -0.00116   0.00693   0.00821   0.01167   0.02092
 Alpha virt. eigenvalues --    0.02408   0.02529   0.03481   0.03696   0.04248
 Alpha virt. eigenvalues --    0.04544   0.04677   0.05511   0.05901   0.07088

 Mulliken charges:
               1
     1  C   -0.340879
     2  C   -0.519818
     3  C   -0.209395
     4  C   -0.015700
     5  C   -0.170835
     6  C   -0.042433
     7  C   -0.263344
     8  C   -0.166260
     9  O   -0.354320
    10  C   -0.377788
    11  O   -0.303724
    12  C   -0.349374
    13  O   -0.270091
    14  H    0.249948
    15  H    0.159814
    16  H    0.149574
    17  H    0.271058
    18  H    0.200452
    19  H    0.152347
    20  H    0.153716
    21  H    0.197451
    22  H    0.178550
    23  H    0.167848
    24  H    0.223542
    25  H    0.220570
    26  H    0.132417
    27  H    0.216110
    28  H    0.168476
    29  H    0.170871
    30  H    0.206365
    31  H    0.164853
 Sum of Mulliken charges =   0.00000

 Dipole moment (field-independent basis, Debye):
    X=             -1.1003    Y=              2.1932    Z=              1.0001  Tot=              2.6497
 Quadrupole moment (field-independent basis, Debye-Ang):
   XX=            -70.8672   YY=            -83.7527   ZZ=            -79.6988
   XY=              6.0919   XZ=              3.1483   YZ=              2.6960

  Exact polarizability: 180.153   3.401 156.940  -0.320   1.924 148.737
 Approx polarizability: 148.717   1.559 141.703   0.012   1.061 141.730

                      1                      2                      3
                      A                      A                      A
 Frequencies --     26.8389                56.9646                91.1786
 Red. masses --      3.3110                 4.1222                 3.6280
 Frc consts  --      0.0014                 0.0079                 0.0178
 IR Inten    --      0.9256                 1.5091                 2.6665

                      4                      5                      6
                      A                      A                      A
 Frequencies --    110.9503               191.2849               209.4581
 Red. masses --      2.9764                 2.1533                 2.5021
 Frc consts  --      0.0216                 0.0464                 0.0647
 IR Inten    --      0.2922                 0.4728                 1.9118

                      7                      8                      9
                      A                      A                      A
 Frequencies --    248.7771               271.1798               311.3615
 Red. masses --      2.0155                 3.1609                 4.0066
 Frc consts  --      0.0735                 0.1370                 0.2289
 IR Inten    --      3.9054                 0.8009                10.5413

                     10                     11                     12
                      A                      A                      A
 Frequencies --    332.2229               384.7722               433.2042
 Red. masses --      2.6539                 2.4851                 2.7783
 Frc consts  --      0.1726                 0.2168                 0.3072
 IR Inten    --      9.0828                16.6524                 2.6749

                     13                     14                     15
                      A                      A                      A
 Frequencies --    450.7073               471.9981               496.9366
 Red. masses --      3.4701                 2.9710                 3.3340
 Frc consts  --      0.4153                 0.3900                 0.4851
 IR Inten    --      4.8196                 3.6994                 1.4825

                     16                     17                     18
                      A                      A                      A
 Frequencies --    551.8599               619.2972               631.5428
 Red. masses --      2.1557                 5.7558                 2.0249
 Frc consts  --      0.3868                 1.3006                 0.4758
 IR Inten    --      5.1349                 6.0126                10.8482

                     19                     20                     21
                      A                      A                      A
 Frequencies --    656.3783               781.7559               822.2856
 Red. masses --      3.3570                 1.2962                 2.1712
 Frc consts  --      0.8521                 0.4667                 0.8650
 IR Inten    --      4.7003                 6.5078                 0.3708

                     22                     23                     24
                      A                      A                      A
 Frequencies --    843.1520               873.1051               891.5600
 Red. masses --      2.5648                 1.4066                 2.6740
 Frc consts  --      1.0743                 0.6318                 1.2523
 IR Inten    --      8.0968                10.4080                 0.5827

                     25                     26                     27
                      A                      A                      A
 Frequencies --    898.2139               920.2569               942.7974
 Red. masses --      2.4662                 2.1296                 2.2958
 Frc consts  --      1.1723                 1.0626                 1.2023
 IR Inten    --     25.2839                36.8794                39.3956

                     28                     29                     30
                      A                      A                      A
 Frequencies --    967.0397               980.9468               995.3950
 Red. masses --      1.7967                 1.9143                 1.7514
 Frc consts  --      0.9899                 1.0853                 1.0224
 IR Inten    --     12.9873                15.4037                22.2971

                     31                     32                     33
                      A                      A                      A
 Frequencies --   1009.0062              1038.1777              1052.1834
 Red. masses --      2.1175                 2.7525                 1.7175
 Frc consts  --      1.2702                 1.7479                 1.1203
 IR Inten    --     11.6163               126.5117                67.7502

                     34                     35                     36
                      A                      A                      A
 Frequencies --   1074.0337              1084.3567              1119.4091
 Red. masses --      1.8139                 2.1781                 4.4635
 Frc consts  --      1.2328                 1.5089                 3.2954
 IR Inten    --    149.9677                 8.8301               348.6660

                     37                     38                     39
                      A                      A                      A
 Frequencies --   1144.4548              1158.4076              1164.1902
 Red. masses --      3.4716                 2.7968                 3.6163
 Frc consts  --      2.6790                 2.2112                 2.8878
 IR Inten    --    173.2321                55.1594                71.5348

                     40                     41                     42
                      A                      A                      A
 Frequencies --   1171.5750              1188.7380              1210.0134
 Red. masses --      2.2875                 2.3091                 1.4740
 Frc consts  --      1.8499                 1.9225                 1.2715
 IR Inten    --     17.0064                23.2050                39.1992

                     43                     44                     45
                      A                      A                      A
 Frequencies --   1217.0158              1244.3565              1250.5229
 Red. masses --      1.4505                 1.6486                 1.5299
 Frc consts  --      1.2657                 1.5040                 1.4096
 IR Inten    --      5.1559                33.3203                21.9476

                     46                     47                     48
                      A                      A                      A
 Frequencies --   1289.1718              1305.7838              1310.1857
 Red. masses --      1.2048                 1.1610                 1.1786
 Frc consts  --      1.1797                 1.1664                 1.1920
 IR Inten    --      2.1834                19.3474                12.9882

                     49                     50                     51
                      A                      A                      A
 Frequencies --   1336.2189              1345.0508              1347.6690
 Red. masses --      1.3066                 1.2900                 1.3161
 Frc consts  --      1.3745                 1.3751                 1.4084
 IR Inten    --      7.0029                 4.4720                 0.1575

                     52                     53                     54
                      A                      A                      A
 Frequencies --   1367.3199              1368.9731              1374.1142
 Red. masses --      1.4080                 1.2947                 1.3367
 Frc consts  --      1.5509                 1.4295                 1.4870
 IR Inten    --      4.3310                11.5453                 3.8988

                     55                     56                     57
                      A                      A                      A
 Frequencies --   1384.5283              1399.8914              1402.0167
 Red. masses --      1.4373                 1.4130                 1.2478
 Frc consts  --      1.6233                 1.6314                 1.4451
 IR Inten    --      0.3014                22.2431                17.4920

                     58                     59                     60
                      A                      A                      A
 Frequencies --   1412.8496              1416.9051              1426.7600
 Red. masses --      1.3679                 1.4575                 1.3420
 Frc consts  --      1.6088                 1.7240                 1.6095
 IR Inten    --      8.5612                23.1354                11.9214

                     61                     62                     63
                      A                      A                      A
 Frequencies --   1438.0161              1480.8174              1487.7059
 Red. masses --      1.3660                 1.0923                 1.0786
 Frc consts  --      1.6643                 1.4112                 1.4065
 IR Inten    --     14.5400                 6.4357                 2.4289

                     64                     65                     66
                      A                      A                      A
 Frequencies --   1492.0439              1493.2846              1498.0550
 Red. masses --      1.1062                 1.0942                 1.0937
 Frc consts  --      1.4509                 1.4376                 1.4461
 IR Inten    --     12.6745                 8.3463                 1.2505

                     67                     68                     69
                      A                      A                      A
 Frequencies --   1503.5612              1512.1213              1523.7228
 Red. masses --      1.0986                 1.1009                 1.0868
 Frc consts  --      1.4633                 1.4830                 1.4866
 IR Inten    --      9.6147                 7.2577                 3.7357

                     70                     71                     72
                      A                      A                      A
 Frequencies --   3019.4502              3036.3312              3044.6617
 Red. masses --      1.0703                 1.0710                 1.0687
 Frc consts  --      5.7495                 5.8175                 5.8372
 IR Inten    --     69.7268                39.3441                12.6456

                     73                     74                     75
                      A                      A                      A
 Frequencies --   3063.1405              3067.5053              3070.0689
 Red. masses --      1.0696                 1.0805                 1.0644
 Frc consts  --      5.9130                 5.9901                 5.9108
 IR Inten    --     48.6229                40.8071                70.9826

                     76                     77                     78
                      A                      A                      A
 Frequencies --   3071.9493              3076.0188              3078.4708
 Red. masses --      1.0784                 1.0705                 1.0635
 Frc consts  --      5.9960                 5.9681                 5.9384
 IR Inten    --     29.9233                 9.3784                60.0676

                     79                     80                     81
                      A                      A                      A
 Frequencies --   3081.9286              3116.4469              3117.0298
 Red. masses --      1.0639                 1.0959                 1.0992
 Frc consts  --      5.9536                 6.2708                 6.2924
 IR Inten    --     48.8255                38.7328                30.6208

                     82                     83                     84
                      A                      A                      A
 Frequencies --   3120.5220              3131.4869              3132.2074
 Red. masses --      1.1024                 1.1017                 1.0949
 Frc consts  --      6.3247                 6.3654                 6.3286
 IR Inten    --     55.7373                48.2244                45.1552

                     85                     86                     87
                      A                      A                      A
 Frequencies --   3135.1156              3145.4409              3162.4875
 Red. masses --      1.0998                 1.1000                 1.0950
 Frc consts  --      6.3689                 6.4122                 6.4525
 IR Inten    --     50.1100                47.1271                27.1578

 - Thermochemistry -
 -------------------
 Temperature   298.150 Kelvin.  Pressure   1.00000 Atm.
 Atom     1 has atomic number  6 and mass  12.00000

 Molecular mass:   186.12559 amu.
 Principal axes and moments of inertia in atomic units:
                           1         2         3
     Eigenvalues --   867.174584444.043634913.99809
           X            0.99997   0.00768   0.00248
           Y           -0.00773   0.99975   0.02109
           Z           -0.00231  -0.02110   0.99977
 This molecule is an asymmetric top.
 Rotational symmetry number  1.
 Warning -- assumption of classical behavior for rotation
           may cause significant error
 Rotational temperatures (Kelvin)      0.09988     0.01949     0.01763
 Rotational constants (GHZ):           2.08117     0.40610     0.36727
 Zero-point vibrational energy     736761.4 (Joules/Mol)
                                  176.09021 (Kcal/Mol)
 Warning -- explicit consideration of  17 degrees of freedom as
           vibrations may cause significant error
 Vibrational temperatures:     38.62    81.96   131.19   159.63   275.22
          (Kelvin)            301.36   357.93   390.17   447.98   477.99
                              553.60   623.28   648.47   679.10   714.98
                              794.00   891.03   908.65   944.38  1124.77
                             1183.09  1213.11  1256.20  1282.76  1292.33
                             1324.04  1356.48  1391.35  1411.36  1432.15
                             1451.73  1493.71  1513.86  1545.29  1560.15
                             1610.58  1646.62  1666.69  1675.01  1685.64
                             1710.33  1740.94  1751.01  1790.35  1799.22
                             1854.83  1878.73  1885.06  1922.52  1935.23
                             1939.00  1967.27  1969.65  1977.04  1992.03
                             2014.13  2017.19  2032.78  2038.61  2052.79
                             2068.98  2130.57  2140.48  2146.72  2148.50
                             2155.37  2163.29  2175.61  2192.30  4344.32
                             4368.60  4380.59  4407.18  4413.46  4417.14
                             4419.85  4425.70  4429.23  4434.21  4483.87
                             4484.71  4489.74  4505.51  4506.55  4510.73
                             4525.59  4550.11

 Zero-point correction=                           0.280618 (Hartree/Particle)
 Thermal correction to Energy=                    0.292539
 Thermal correction to Enthalpy=                  0.293484
 Thermal correction to Gibbs Free Energy=         0.241606
 Sum of electronic and zero-point Energies=           -617.212833
 Sum of electronic and thermal Energies=              -617.200911
 Sum of electronic and thermal Enthalpies=            -617.199967
 Sum of electronic and thermal Free Energies=         -617.251844

                     E (Thermal)             CV                S
                      KCal/Mol        Cal/Mol-Kelvin    Cal/Mol-Kelvin
 Total                  183.571             46.901            109.185
 Electronic               0.000              0.000              0.000
 Translational            0.889              2.981             41.570
 Rotational               0.889              2.981             31.316
 Vibrational            181.794             40.939             36.299
 Vibration     1          0.593              1.984              6.050
 Vibration     2          0.596              1.975              4.560
 Vibration     3          0.602              1.955              3.635
 Vibration     4          0.607              1.940              3.252
 Vibration     5          0.634              1.852              2.215
 Vibration     6          0.642              1.826              2.048
 Vibration     7          0.662              1.765              1.739
 Vibration     8          0.675              1.726              1.589
 Vibration     9          0.700              1.652              1.355
 Vibration    10          0.714              1.611              1.249
 Vibration    11          0.754              1.503              1.020
 Vibration    12          0.794              1.398              0.848
 Vibration    13          0.809              1.359              0.794
 Vibration    14          0.829              1.312              0.732
 Vibration    15          0.852              1.257              0.666
 Vibration    16          0.907              1.136              0.540
 Vibration    17          0.979              0.991              0.418

                           ! Non-Optimized Parameters !
 Normal termination of Gaussian 16 at Mon Nov  5 02:35:50 2018.
