 Gaussian 16, Revision A.03,
 Gaussian 16:  ES64L-G16RevA.03 25-Dec-2016

 ----------------------------------------------------------------------
 #M062X/6-311++G(2d,2p) opt=ModRedundant freq=noraman SCRF=(Solvent=Wat
 er)
 ----------------------------------------------------------------------

 -----------------------------
 2SO_1_e4_D_PSI.inp_extract_12
 -----------------------------
 Symbolic Z-matrix:
 Charge =  0 Multiplicity = 1

 SCF Done:  E(RM062X) =  -617.493487577     A.U. after   12 cycles
 SCF Done:  E(RM062X) =  -617.495323848     A.U. after   12 cycles
 SCF Done:  E(RM062X) =  -617.495770805     A.U. after   11 cycles
 SCF Done:  E(RM062X) =  -617.495962330     A.U. after    9 cycles
 SCF Done:  E(RM062X) =  -617.495984536     A.U. after    9 cycles
 SCF Done:  E(RM062X) =  -617.495989272     A.U. after    8 cycles
 SCF Done:  E(RM062X) =  -617.495990285     A.U. after    8 cycles
 SCF Done:  E(RM062X) =  -617.495990464     A.U. after    8 cycles
 Optimization completed.
    -- Stationary point found.
 Normal termination of Gaussian 16 at Mon Nov  5 00:21:41 2018.

 ----------------------------------------------------------------------
 #N Geom=AllCheck Guess=TCheck SCRF=Check GenChk RM062X/6-311++G(2d,2p)
  Freq
 ----------------------------------------------------------------------

 Structure from the checkpoint file:  "2SO_1_e4_D_PSI.inp_extract_12.chk"
 -----------------------------
 2SO_1_e4_D_PSI.inp_extract_12
 -----------------------------
 Charge =  0 Multiplicity = 1

                         Standard orientation:
 ---------------------------------------------------------------------
 Center     Atomic      Atomic             Coordinates (Angstroms)
 Number     Number       Type             X           Y           Z
 ---------------------------------------------------------------------
      1          6           0        1.180359   -0.553712    0.713446
      2          6           0       -3.397397    1.059945   -0.320634
      3          6           0       -1.112740   -0.798588   -0.049103
      4          6           0       -1.914437    1.413050   -0.162835
      5          6           0       -3.566042   -0.468140   -0.323250
      6          6           0        1.683212   -1.161467   -0.588783
      7          6           0        1.505872    0.938394    0.753100
      8          6           0        3.417744    0.643783   -0.574038
      9          8           0        2.906760    1.136022    0.658087
     10          6           0        3.176818   -0.851334   -0.716893
     11          8           0       -0.195041   -0.781640    1.015167
     12          6           0       -2.485428   -1.101523    0.548422
     13          8           0       -1.105995    0.410776   -0.775053
     14          1           0        1.722665   -1.021306    1.538915
     15          1           0       -3.792500    1.484253   -1.242686
     16          1           0       -3.954033    1.502117    0.506726
     17          1           0       -0.830626   -1.557908   -0.779460
     18          1           0       -1.664700    2.352413   -0.649705
     19          1           0       -1.640384    1.499139    0.891794
     20          1           0       -3.468392   -0.848477   -1.341103
     21          1           0       -4.557288   -0.747493    0.028434
     22          1           0        1.504118   -2.237145   -0.605771
     23          1           0        1.152332   -0.715420   -1.433368
     24          1           0        1.183111    1.365427    1.701275
     25          1           0        0.994674    1.455199   -0.064938
     26          1           0        2.940305    1.181345   -1.402554
     27          1           0        4.480601    0.875893   -0.579536
     28          1           0        3.556097   -1.189762   -1.681245
     29          1           0        3.735332   -1.376140    0.060909
     30          1           0       -2.527067   -0.686245    1.557261
     31          1           0       -2.607795   -2.179599    0.632855
 ---------------------------------------------------------------------

 SCF Done:  E(RM062X) =  -617.495990464     A.U. after    1 cycles

 The electronic state is 1-A.
 Alpha  occ. eigenvalues --  -19.63308 -19.63057 -19.62980 -10.63539 -10.58718
 Alpha  occ. eigenvalues --  -10.58021 -10.57952 -10.57598 -10.53379 -10.53340
 Alpha  occ. eigenvalues --  -10.53225 -10.53183 -10.52946  -1.20020  -1.16438
 Alpha  occ. eigenvalues --   -1.13586  -0.90875  -0.89697  -0.87215  -0.84241
 Alpha  occ. eigenvalues --   -0.75423  -0.74455  -0.73039  -0.70080  -0.66119
 Alpha  occ. eigenvalues --   -0.61920  -0.60482  -0.59227  -0.57788  -0.56251
 Alpha  occ. eigenvalues --   -0.55005  -0.52923  -0.52107  -0.50426  -0.49291
 Alpha  occ. eigenvalues --   -0.48228  -0.46343  -0.46084  -0.45723  -0.44628
 Alpha  occ. eigenvalues --   -0.44108  -0.42921  -0.40854  -0.40435  -0.38932
 Alpha  occ. eigenvalues --   -0.38117  -0.38018  -0.36230  -0.35568  -0.33761
 Alpha  occ. eigenvalues --   -0.31681
 Alpha virt. eigenvalues --   -0.00111   0.00761   0.00876   0.01006   0.02216
 Alpha virt. eigenvalues --    0.02509   0.02620   0.03448   0.03568   0.04338
 Alpha virt. eigenvalues --    0.04693   0.05024   0.05693   0.05835   0.07089

 Mulliken charges:
               1
     1  C    0.123931
     2  C   -0.563446
     3  C   -0.265101
     4  C    0.015610
     5  C   -0.219507
     6  C   -0.216886
     7  C   -0.396967
     8  C   -0.169765
     9  O   -0.343087
    10  C   -0.431917
    11  O   -0.323046
    12  C   -0.368126
    13  O   -0.298191
    14  H    0.269588
    15  H    0.161873
    16  H    0.152618
    17  H    0.242535
    18  H    0.209832
    19  H    0.142145
    20  H    0.154419
    21  H    0.200655
    22  H    0.175095
    23  H    0.240884
    24  H    0.204343
    25  H    0.225651
    26  H    0.134817
    27  H    0.216226
    28  H    0.167138
    29  H    0.176924
    30  H    0.196294
    31  H    0.185461
 Sum of Mulliken charges =  -0.00000

 Dipole moment (field-independent basis, Debye):
    X=             -1.7050    Y=             -0.9934    Z=             -1.6256  Tot=              2.5567
 Quadrupole moment (field-independent basis, Debye-Ang):
   XX=            -75.0347   YY=            -78.7348   ZZ=            -83.0727
   XY=             -5.6261   XZ=             -6.1420   YZ=              0.6035

  Exact polarizability: 176.568  -1.787 158.081  -1.198   0.422 149.428
 Approx polarizability: 147.318  -1.482 141.809  -0.135   0.061 142.905

                      1                      2                      3
                      A                      A                      A
 Frequencies --     52.2945                63.6298               100.1093
 Red. masses --      3.2592                 3.7564                 3.6467
 Frc consts  --      0.0053                 0.0090                 0.0215
 IR Inten    --      1.9080                 1.1105                 1.5042

                      4                      5                      6
                      A                      A                      A
 Frequencies --    132.9617               171.8280               212.6142
 Red. masses --      2.7944                 2.9610                 1.9112
 Frc consts  --      0.0291                 0.0515                 0.0509
 IR Inten    --      1.6634                 1.3555                 2.7716

                      7                      8                      9
                      A                      A                      A
 Frequencies --    258.5518               273.2477               324.1631
 Red. masses --      2.1552                 3.5431                 2.7709
 Frc consts  --      0.0849                 0.1559                 0.1716
 IR Inten    --      4.8995                 1.2701                 9.8040

                     10                     11                     12
                      A                      A                      A
 Frequencies --    349.7845               374.4754               437.7838
 Red. masses --      3.5066                 2.4997                 2.5167
 Frc consts  --      0.2528                 0.2065                 0.2842
 IR Inten    --     26.9698                 5.5312                 1.3845

                     13                     14                     15
                      A                      A                      A
 Frequencies --    449.1512               469.0631               481.6023
 Red. masses --      3.6282                 3.5687                 3.2798
 Frc consts  --      0.4313                 0.4626                 0.4482
 IR Inten    --      8.8407                 0.3719                 1.8853

                     16                     17                     18
                      A                      A                      A
 Frequencies --    555.5780               629.8201               637.2310
 Red. masses --      2.0939                 3.4067                 2.2244
 Frc consts  --      0.3808                 0.7962                 0.5322
 IR Inten    --      4.7809                16.8646                 4.1152

                     19                     20                     21
                      A                      A                      A
 Frequencies --    665.4002               782.7429               826.6974
 Red. masses --      4.5956                 1.2972                 2.1459
 Frc consts  --      1.1988                 0.4683                 0.8641
 IR Inten    --      2.6011                 6.1192                 1.9612

                     22                     23                     24
                      A                      A                      A
 Frequencies --    843.3619               881.0205               888.8711
 Red. masses --      2.5627                 1.3795                 2.6615
 Frc consts  --      1.0739                 0.6309                 1.2389
 IR Inten    --      7.9774                10.2512                 5.4764

                     25                     26                     27
                      A                      A                      A
 Frequencies --    896.3713               923.5456               947.2077
 Red. masses --      2.4524                 2.1342                 2.3804
 Frc consts  --      1.1610                 1.0725                 1.2583
 IR Inten    --      9.7382                29.9455                37.6222

                     28                     29                     30
                      A                      A                      A
 Frequencies --    969.2370               981.0544               993.0478
 Red. masses --      1.7921                 2.3500                 1.5142
 Frc consts  --      0.9919                 1.3326                 0.8798
 IR Inten    --     15.7005                13.1745                11.8817

                     31                     32                     33
                      A                      A                      A
 Frequencies --   1009.4512              1044.5914              1053.0671
 Red. masses --      2.0095                 2.8875                 1.7391
 Frc consts  --      1.2065                 1.8564                 1.1363
 IR Inten    --      4.8198               155.1561                15.4412

                     34                     35                     36
                      A                      A                      A
 Frequencies --   1073.1803              1084.5296              1116.2572
 Red. masses --      1.7941                 2.2601                 4.3843
 Frc consts  --      1.2174                 1.5663                 3.2187
 IR Inten    --    125.2020                 5.5755               245.9615

                     37                     38                     39
                      A                      A                      A
 Frequencies --   1144.8657              1154.3249              1164.9959
 Red. masses --      3.1319                 2.7290                 3.0217
 Frc consts  --      2.4186                 2.1424                 2.4163
 IR Inten    --     61.5094                31.9103               195.1271

                     40                     41                     42
                      A                      A                      A
 Frequencies --   1168.2813              1192.5089              1208.9303
 Red. masses --      2.7605                 2.2131                 1.3780
 Frc consts  --      2.2199                 1.8543                 1.1866
 IR Inten    --    115.0348                35.4406                29.8482

                     43                     44                     45
                      A                      A                      A
 Frequencies --   1220.1956              1243.7868              1254.6685
 Red. masses --      1.5214                 1.6329                 1.5886
 Frc consts  --      1.3346                 1.4884                 1.4734
 IR Inten    --      2.4314                49.8473                15.8988

                     46                     47                     48
                      A                      A                      A
 Frequencies --   1290.1895              1305.7321              1310.0630
 Red. masses --      1.2038                 1.1902                 1.1875
 Frc consts  --      1.1806                 1.1956                 1.2008
 IR Inten    --      3.3814                 6.0024                15.8897

                     49                     50                     51
                      A                      A                      A
 Frequencies --   1327.9795              1343.5024              1348.1578
 Red. masses --      1.2728                 1.2775                 1.2888
 Frc consts  --      1.3225                 1.3586                 1.3802
 IR Inten    --     12.4607                 8.7423                 0.8830

                     52                     53                     54
                      A                      A                      A
 Frequencies --   1366.2885              1366.8585              1372.8855
 Red. masses --      1.3021                 1.4006                 1.3525
 Frc consts  --      1.4321                 1.5418                 1.5019
 IR Inten    --     13.0710                 1.3362                 1.7836

                     55                     56                     57
                      A                      A                      A
 Frequencies --   1384.0762              1399.7139              1404.3140
 Red. masses --      1.4215                 1.4213                 1.2519
 Frc consts  --      1.6045                 1.6407                 1.4546
 IR Inten    --      6.7765                 9.4139                13.6607

                     58                     59                     60
                      A                      A                      A
 Frequencies --   1413.6676              1416.1015              1426.1450
 Red. masses --      1.4211                 1.4021                 1.3944
 Frc consts  --      1.6732                 1.6566                 1.6709
 IR Inten    --     15.1595                11.7452                 2.3488

                     61                     62                     63
                      A                      A                      A
 Frequencies --   1434.0016              1483.9277              1487.3886
 Red. masses --      1.3457                 1.0928                 1.0788
 Frc consts  --      1.6305                 1.4179                 1.4061
 IR Inten    --     30.0245                 8.6207                 2.1902

                     64                     65                     66
                      A                      A                      A
 Frequencies --   1495.1870              1497.6017              1501.9642
 Red. masses --      1.0946                 1.1099                 1.0821
 Frc consts  --      1.4417                 1.4666                 1.4383
 IR Inten    --      7.9182                 5.0998                 1.3124

                     67                     68                     69
                      A                      A                      A
 Frequencies --   1502.9049              1515.9095              1523.6884
 Red. masses --      1.0988                 1.1007                 1.0870
 Frc consts  --      1.4623                 1.4903                 1.4868
 IR Inten    --     10.7250                 9.0185                 3.7743

                     70                     71                     72
                      A                      A                      A
 Frequencies --   3018.9128              3052.8633              3059.5950
 Red. masses --      1.0705                 1.0665                 1.0685
 Frc consts  --      5.7481                 5.8564                 5.8932
 IR Inten    --     70.9587                26.6651                28.0857

                     73                     74                     75
                      A                      A                      A
 Frequencies --   3060.4559              3069.2259              3070.8049
 Red. masses --      1.0664                 1.0675                 1.0711
 Frc consts  --      5.8850                 5.9246                 5.9508
 IR Inten    --     21.6965                 5.4075               105.1933

                     76                     77                     78
                      A                      A                      A
 Frequencies --   3075.9781              3079.1158              3083.2723
 Red. masses --      1.0672                 1.0625                 1.0637
 Frc consts  --      5.9493                 5.9350                 5.9576
 IR Inten    --     17.9028                40.3115                37.6440

                     79                     80                     81
                      A                      A                      A
 Frequencies --   3094.9241              3112.4789              3118.0701
 Red. masses --      1.0841                 1.1014                 1.0991
 Frc consts  --      6.1182                 6.2867                 6.2957
 IR Inten    --     47.6228                32.6100                31.7625

                     82                     83                     84
                      A                      A                      A
 Frequencies --   3120.1801              3130.8776              3132.7952
 Red. masses --      1.1036                 1.0992                 1.1008
 Frc consts  --      6.3300                 6.3483                 6.3656
 IR Inten    --     55.7509                39.9239                47.3339

                     85                     86                     87
                      A                      A                      A
 Frequencies --   3133.2086              3136.9343              3143.6540
 Red. masses --      1.0979                 1.1000                 1.1002
 Frc consts  --      6.3503                 6.3776                 6.4058
 IR Inten    --     43.0181                56.9759                42.8408

 - Thermochemistry -
 -------------------
 Temperature   298.150 Kelvin.  Pressure   1.00000 Atm.
 Atom     1 has atomic number  6 and mass  12.00000

 Molecular mass:   186.12559 amu.
 Principal axes and moments of inertia in atomic units:
                           1         2         3
     Eigenvalues --   945.217464120.963584439.41061
           X            0.99993  -0.00845  -0.00870
           Y            0.00859   0.99983   0.01641
           Z            0.00856  -0.01648   0.99983
 This molecule is an asymmetric top.
 Rotational symmetry number  1.
 Warning -- assumption of classical behavior for rotation
           may cause significant error
 Rotational temperatures (Kelvin)      0.09163     0.02102     0.01951
 Rotational constants (GHZ):           1.90934     0.43794     0.40653
 Zero-point vibrational energy     737603.5 (Joules/Mol)
                                  176.29147 (Kcal/Mol)
 Warning -- explicit consideration of  16 degrees of freedom as
           vibrations may cause significant error
 Vibrational temperatures:     75.24    91.55   144.03   191.30   247.22
          (Kelvin)            305.90   372.00   393.14   466.40   503.26
                              538.79   629.87   646.23   674.88   692.92
                              799.35   906.17   916.83   957.36  1126.19
                             1189.43  1213.41  1267.59  1278.89  1289.68
                             1328.78  1362.82  1394.52  1411.52  1428.77
                             1452.38  1502.93  1515.13  1544.07  1560.40
                             1606.05  1647.21  1660.82  1676.17  1680.90
                             1715.75  1739.38  1755.59  1789.53  1805.19
                             1856.29  1878.66  1884.89  1910.67  1933.00
                             1939.70  1965.78  1966.60  1975.28  1991.38
                             2013.88  2020.49  2033.95  2037.45  2051.90
                             2063.21  2135.04  2140.02  2151.24  2154.71
                             2160.99  2162.34  2181.06  2192.25  4343.54
                             4392.39  4402.07  4403.31  4415.93  4418.20
                             4425.65  4430.16  4436.14  4452.91  4478.16
                             4486.21  4489.24  4504.63  4507.39  4507.99
                             4513.35  4523.02

 Zero-point correction=                           0.280938 (Hartree/Particle)
 Thermal correction to Energy=                    0.292713
 Thermal correction to Enthalpy=                  0.293657
 Thermal correction to Gibbs Free Energy=         0.242823
 Sum of electronic and zero-point Energies=           -617.215052
 Sum of electronic and thermal Energies=              -617.203278
 Sum of electronic and thermal Enthalpies=            -617.202333
 Sum of electronic and thermal Free Energies=         -617.253168

                     E (Thermal)             CV                S
                      KCal/Mol        Cal/Mol-Kelvin    Cal/Mol-Kelvin
 Total                  183.680             46.771            106.989
 Electronic               0.000              0.000              0.000
 Translational            0.889              2.981             41.570
 Rotational               0.889              2.981             31.226
 Vibrational            181.903             40.810             34.194
 Vibration     1          0.596              1.977              4.729
 Vibration     2          0.597              1.972              4.341
 Vibration     3          0.604              1.949              3.452
 Vibration     4          0.613              1.920              2.903
 Vibration     5          0.626              1.877              2.415
 Vibration     6          0.644              1.822              2.021
 Vibration     7          0.667              1.748              1.672
 Vibration     8          0.676              1.723              1.576
 Vibration     9          0.709              1.627              1.289
 Vibration    10          0.727              1.576              1.167
 Vibration    11          0.746              1.524              1.061
 Vibration    12          0.798              1.388              0.834
 Vibration    13          0.808              1.363              0.798
 Vibration    14          0.826              1.319              0.740
 Vibration    15          0.838              1.291              0.706
 Vibration    16          0.911              1.127              0.533

 Optimization completed.
    -- Stationary point found.
 Normal termination of Gaussian 16 at Mon Nov  5 01:13:22 2018.
