 Gaussian 16, Revision A.03,
 Gaussian 16:  ES64L-G16RevA.03 25-Dec-2016

 ----------------------------------------------------------------------
 #M062X/6-311++G(2d,2p) opt=ModRedundant freq=noraman SCRF=(Solvent=Wat
 er)
 ----------------------------------------------------------------------

 ----------------------------
 2SO_1_e4_D_PSI.inp_extract_9
 ----------------------------
 Symbolic Z-matrix:
 Charge =  0 Multiplicity = 1

 SCF Done:  E(RM062X) =  -617.493113532     A.U. after   12 cycles
 SCF Done:  E(RM062X) =  -617.494644205     A.U. after   11 cycles
 SCF Done:  E(RM062X) =  -617.495077862     A.U. after   11 cycles
 SCF Done:  E(RM062X) =  -617.495205275     A.U. after   10 cycles
 SCF Done:  E(RM062X) =  -617.495231863     A.U. after    9 cycles
 SCF Done:  E(RM062X) =  -617.495236946     A.U. after    9 cycles
 SCF Done:  E(RM062X) =  -617.495237980     A.U. after    8 cycles
 SCF Done:  E(RM062X) =  -617.495238168     A.U. after    7 cycles
 Optimization completed.
    -- Stationary point found.
 Normal termination of Gaussian 16 at Mon Nov  5 01:33:07 2018.

 ----------------------------------------------------------------------
 #N Geom=AllCheck Guess=TCheck SCRF=Check GenChk RM062X/6-311++G(2d,2p)
  Freq
 ----------------------------------------------------------------------

 Structure from the checkpoint file:  "2SO_1_e4_D_PSI.inp_extract_9.chk"
 ----------------------------
 2SO_1_e4_D_PSI.inp_extract_9
 ----------------------------
 Charge =  0 Multiplicity = 1

                         Standard orientation:
 ---------------------------------------------------------------------
 Center     Atomic      Atomic             Coordinates (Angstroms)
 Number     Number       Type             X           Y           Z
 ---------------------------------------------------------------------
      1          6           0       -1.217956    0.238434    0.742243
      2          6           0        3.778622   -0.591433   -0.081596
      3          6           0        1.003173    0.434490   -0.189385
      4          6           0        2.510283   -1.261177    0.456847
      5          6           0        3.420145    0.770404   -0.698917
      6          6           0       -2.007122    1.343169    0.049921
      7          6           0       -1.439789   -1.099610    0.035346
      8          6           0       -3.575912   -0.448791   -0.703596
      9          8           0       -2.823900   -1.407829    0.028279
     10          6           0       -3.474227    0.927902   -0.067619
     11          8           0        0.150919    0.596665    0.915808
     12          6           0        2.205861    1.350228    0.019999
     13          8           0        1.389289   -0.914059   -0.351913
     14          1           0       -1.601523    0.126256    1.758604
     15          1           0        4.257620   -1.228180   -0.824190
     16          1           0        4.483509   -0.462809    0.740943
     17          1           0        0.480026    0.685613   -1.114405
     18          1           0        2.583390   -2.345393    0.434150
     19          1           0        2.315855   -0.960459    1.488916
     20          1           0        3.178903    0.645202   -1.755551
     21          1           0        4.264444    1.454790   -0.643322
     22          1           0       -1.902437    2.271105    0.611733
     23          1           0       -1.596207    1.512779   -0.949585
     24          1           0       -0.930380   -1.903818    0.560489
     25          1           0       -1.064235   -1.065653   -0.993307
     26          1           0       -3.209415   -0.415888   -1.737056
     27          1           0       -4.602712   -0.808064   -0.713394
     28          1           0       -4.034896    1.649957   -0.661400
     29          1           0       -3.929065    0.891206    0.924557
     30          1           0        2.403100    1.425445    1.091424
     31          1           0        1.955094    2.348005   -0.335444
 ---------------------------------------------------------------------

 SCF Done:  E(RM062X) =  -617.495238168     A.U. after    1 cycles

 The electronic state is 1-A.
 Alpha  occ. eigenvalues --  -19.63383 -19.63074 -19.62919 -10.63637 -10.58828
 Alpha  occ. eigenvalues --  -10.58044 -10.57994 -10.57860 -10.53291 -10.53242
 Alpha  occ. eigenvalues --  -10.53219 -10.53183 -10.52897  -1.19968  -1.16545
 Alpha  occ. eigenvalues --   -1.13670  -0.90739  -0.89770  -0.86990  -0.84510
 Alpha  occ. eigenvalues --   -0.75297  -0.74309  -0.73366  -0.70353  -0.65913
 Alpha  occ. eigenvalues --   -0.62141  -0.60766  -0.58958  -0.57816  -0.56476
 Alpha  occ. eigenvalues --   -0.54802  -0.53098  -0.52257  -0.50001  -0.48871
 Alpha  occ. eigenvalues --   -0.48648  -0.46899  -0.45916  -0.45541  -0.44323
 Alpha  occ. eigenvalues --   -0.44045  -0.42544  -0.41764  -0.40414  -0.39275
 Alpha  occ. eigenvalues --   -0.38615  -0.37923  -0.35891  -0.34906  -0.34000
 Alpha  occ. eigenvalues --   -0.31883
 Alpha virt. eigenvalues --   -0.00107   0.00688   0.00822   0.01155   0.02119
 Alpha virt. eigenvalues --    0.02426   0.02544   0.03441   0.03694   0.04246
 Alpha virt. eigenvalues --    0.04588   0.04703   0.05487   0.05943   0.07127

 Mulliken charges:
               1
     1  C   -0.386239
     2  C   -0.517374
     3  C   -0.217097
     4  C   -0.021860
     5  C   -0.174818
     6  C   -0.027169
     7  C   -0.254368
     8  C   -0.166860
     9  O   -0.353226
    10  C   -0.383746
    11  O   -0.301528
    12  C   -0.321247
    13  O   -0.259940
    14  H    0.251617
    15  H    0.160464
    16  H    0.149367
    17  H    0.281114
    18  H    0.198798
    19  H    0.153126
    20  H    0.151865
    21  H    0.198399
    22  H    0.177360
    23  H    0.166597
    24  H    0.218631
    25  H    0.218493
    26  H    0.134289
    27  H    0.217367
    28  H    0.166228
    29  H    0.174527
    30  H    0.206135
    31  H    0.161092
 Sum of Mulliken charges =  -0.00000

 Dipole moment (field-independent basis, Debye):
    X=              1.1630    Y=              2.3403    Z=             -1.1441  Tot=              2.8528
 Quadrupole moment (field-independent basis, Debye-Ang):
   XX=            -71.6206   YY=            -82.7850   ZZ=            -80.4521
   XY=             -6.4464   XZ=              3.4537   YZ=             -2.4546

  Exact polarizability: 179.734  -3.784 157.605  -0.098  -1.752 148.193
 Approx polarizability: 148.734  -1.924 141.511   0.090  -1.018 141.838

                      1                      2                      3
                      A                      A                      A
 Frequencies --     51.2854                61.4471                91.0411
 Red. masses --      4.0271                 3.0068                 3.8942
 Frc consts  --      0.0062                 0.0067                 0.0190
 IR Inten    --      1.4471                 1.5649                 1.5858

                      4                      5                      6
                      A                      A                      A
 Frequencies --    119.3522               195.0246               210.9606
 Red. masses --      2.9821                 2.1464                 2.5510
 Frc consts  --      0.0250                 0.0481                 0.0669
 IR Inten    --      0.2845                 0.4346                 1.0329

                      7                      8                      9
                      A                      A                      A
 Frequencies --    252.0220               265.9756               327.3346
 Red. masses --      2.0009                 3.2510                 3.8071
 Frc consts  --      0.0749                 0.1355                 0.2403
 IR Inten    --      3.9415                 0.6003                12.0863

                     10                     11                     12
                      A                      A                      A
 Frequencies --    331.7255               388.7683               432.0050
 Red. masses --      2.7131                 2.5236                 2.8669
 Frc consts  --      0.1759                 0.2247                 0.3152
 IR Inten    --     11.0450                14.2777                 2.9257

                     13                     14                     15
                      A                      A                      A
 Frequencies --    451.0259               476.9327               496.6238
 Red. masses --      3.4611                 3.0231                 3.2969
 Frc consts  --      0.4148                 0.4052                 0.4791
 IR Inten    --      5.0108                 4.1335                 0.9592

                     16                     17                     18
                      A                      A                      A
 Frequencies --    551.7596               618.1891               630.8244
 Red. masses --      2.0882                 5.7500                 2.0320
 Frc consts  --      0.3746                 1.2947                 0.4764
 IR Inten    --      6.5194                 5.9832                11.2862

                     19                     20                     21
                      A                      A                      A
 Frequencies --    660.5166               782.6429               823.7346
 Red. masses --      3.4183                 1.2905                 2.1589
 Frc consts  --      0.8787                 0.4657                 0.8631
 IR Inten    --      3.4454                 6.3750                 0.8259

                     22                     23                     24
                      A                      A                      A
 Frequencies --    843.7853               873.3835               890.3332
 Red. masses --      2.5104                 1.4018                 2.6474
 Frc consts  --      1.0531                 0.6300                 1.2364
 IR Inten    --      6.7221                 8.7648                 1.0182

                     25                     26                     27
                      A                      A                      A
 Frequencies --    897.4498               919.3388               943.0520
 Red. masses --      2.4475                 2.1392                 2.3498
 Frc consts  --      1.1614                 1.0652                 1.2313
 IR Inten    --     23.7753                41.6593                43.2383

                     28                     29                     30
                      A                      A                      A
 Frequencies --    966.7751               980.8585               995.8765
 Red. masses --      1.8082                 1.8724                 1.7285
 Frc consts  --      0.9958                 1.0614                 1.0101
 IR Inten    --     13.6947                13.8893                18.2665

                     31                     32                     33
                      A                      A                      A
 Frequencies --   1009.7291              1041.1786              1051.0893
 Red. masses --      2.1545                 2.8893                 1.7058
 Frc consts  --      1.2942                 1.8454                 1.1104
 IR Inten    --     10.3392               167.1428                44.1558

                     34                     35                     36
                      A                      A                      A
 Frequencies --   1074.3021              1084.0542              1119.6678
 Red. masses --      1.7774                 2.1785                 4.4438
 Frc consts  --      1.2086                 1.5084                 3.2824
 IR Inten    --    136.9876                10.0956               335.0836

                     37                     38                     39
                      A                      A                      A
 Frequencies --   1144.0306              1155.2422              1161.5820
 Red. masses --      3.3437                 2.9639                 3.6581
 Frc consts  --      2.5784                 2.3306                 2.9081
 IR Inten    --    132.2867                84.7567                68.8451

                     40                     41                     42
                      A                      A                      A
 Frequencies --   1168.4998              1189.9486              1209.3967
 Red. masses --      2.3322                 2.2295                 1.4372
 Frc consts  --      1.8762                 1.8600                 1.2385
 IR Inten    --     23.1420                26.3774                38.1821

                     43                     44                     45
                      A                      A                      A
 Frequencies --   1218.3803              1243.4532              1250.2654
 Red. masses --      1.4925                 1.6376                 1.5314
 Frc consts  --      1.3054                 1.4918                 1.4104
 IR Inten    --      5.3456                32.8790                22.3666

                     46                     47                     48
                      A                      A                      A
 Frequencies --   1289.6426              1305.8226              1310.0597
 Red. masses --      1.2056                 1.1629                 1.1841
 Frc consts  --      1.1814                 1.1683                 1.1973
 IR Inten    --      2.8648                18.1725                12.4243

                     49                     50                     51
                      A                      A                      A
 Frequencies --   1335.6473              1344.4219              1345.1458
 Red. masses --      1.3069                 1.2852                 1.3149
 Frc consts  --      1.3736                 1.3687                 1.4018
 IR Inten    --      8.4116                 4.5374                 0.1015

                     52                     53                     54
                      A                      A                      A
 Frequencies --   1365.6082              1369.2823              1372.6532
 Red. masses --      1.3767                 1.3590                 1.3641
 Frc consts  --      1.5127                 1.5012                 1.5143
 IR Inten    --      6.9729                 5.2184                 7.1044

                     55                     56                     57
                      A                      A                      A
 Frequencies --   1382.6398              1399.5124              1403.5833
 Red. masses --      1.4362                 1.3258                 1.2801
 Frc consts  --      1.6177                 1.5300                 1.4859
 IR Inten    --      0.2846                 3.4048                17.6219

                     58                     59                     60
                      A                      A                      A
 Frequencies --   1414.3993              1417.8020              1428.4706
 Red. masses --      1.4043                 1.4830                 1.2787
 Frc consts  --      1.6553                 1.7564                 1.5373
 IR Inten    --      6.6409                47.0898                 9.9140

                     61                     62                     63
                      A                      A                      A
 Frequencies --   1435.8151              1481.8384              1488.4709
 Red. masses --      1.3734                 1.0917                 1.0782
 Frc consts  --      1.6681                 1.4124                 1.4075
 IR Inten    --      8.7289                 6.1842                 2.5237

                     64                     65                     66
                      A                      A                      A
 Frequencies --   1491.7224              1493.0147              1497.5563
 Red. masses --      1.0968                 1.0951                 1.1069
 Frc consts  --      1.4380                 1.4383                 1.4626
 IR Inten    --     10.6899                 8.5769                 3.5626

                     67                     68                     69
                      A                      A                      A
 Frequencies --   1504.4842              1511.4226              1524.4331
 Red. masses --      1.0977                 1.1014                 1.0865
 Frc consts  --      1.4640                 1.4825                 1.4877
 IR Inten    --      9.7958                 8.1905                 4.0801

                     70                     71                     72
                      A                      A                      A
 Frequencies --   3019.9408              3040.3219              3052.8961
 Red. masses --      1.0705                 1.0687                 1.0672
 Frc consts  --      5.7524                 5.8205                 5.8601
 IR Inten    --     69.0401                44.4878                13.5912

                     73                     74                     75
                      A                      A                      A
 Frequencies --   3063.6157              3069.6593              3074.8019
 Red. masses --      1.0689                 1.0624                 1.0678
 Frc consts  --      5.9107                 5.8981                 5.9480
 IR Inten    --     44.0761                28.9146                15.8472

                     76                     77                     78
                      A                      A                      A
 Frequencies --   3078.7608              3079.0620              3081.8474
 Red. masses --      1.0801                 1.0654                 1.0682
 Frc consts  --      6.0321                 5.9510                 5.9775
 IR Inten    --     61.3935                49.9018                24.8394

                     79                     80                     81
                      A                      A                      A
 Frequencies --   3084.5167              3115.2154              3117.9282
 Red. masses --      1.0777                 1.0977                 1.0990
 Frc consts  --      6.0411                 6.2765                 6.2948
 IR Inten    --     53.0709                40.8201                31.1097

                     82                     83                     84
                      A                      A                      A
 Frequencies --   3120.7770              3132.1031              3134.2437
 Red. masses --      1.1030                 1.1015                 1.0944
 Frc consts  --      6.3294                 6.3665                 6.3344
 IR Inten    --     58.5346                44.6393                47.6170

                     85                     86                     87
                      A                      A                      A
 Frequencies --   3134.6907              3145.2330              3146.8314
 Red. masses --      1.1002                 1.1001                 1.0971
 Frc consts  --      6.3696                 6.4121                 6.4007
 IR Inten    --     52.0201                50.6068                33.5853

 - Thermochemistry -
 -------------------
 Temperature   298.150 Kelvin.  Pressure   1.00000 Atm.
 Atom     1 has atomic number  6 and mass  12.00000

 Molecular mass:   186.12559 amu.
 Principal axes and moments of inertia in atomic units:
                           1         2         3
     Eigenvalues --   883.911854380.526984856.09405
           X            0.99996  -0.00808   0.00319
           Y            0.00815   0.99976  -0.02018
           Z           -0.00303   0.02021   0.99979
 This molecule is an asymmetric top.
 Rotational symmetry number  1.
 Warning -- assumption of classical behavior for rotation
           may cause significant error
 Rotational temperatures (Kelvin)      0.09799     0.01977     0.01784
 Rotational constants (GHZ):           2.04177     0.41199     0.37164
 Zero-point vibrational energy     737239.1 (Joules/Mol)
                                  176.20438 (Kcal/Mol)
 Warning -- explicit consideration of  17 degrees of freedom as
           vibrations may cause significant error
 Vibrational temperatures:     73.79    88.41   130.99   171.72   280.60
          (Kelvin)            303.53   362.60   382.68   470.96   477.28
                              559.35   621.56   648.93   686.20   714.53
                              793.86   889.44   907.62   950.34  1126.05
                             1185.17  1214.02  1256.60  1280.99  1291.23
                             1322.72  1356.84  1390.97  1411.24  1432.84
                             1452.77  1498.02  1512.28  1545.68  1559.71
                             1610.95  1646.00  1662.14  1671.26  1681.21
                             1712.07  1740.05  1752.98  1789.05  1798.85
                             1855.51  1878.79  1884.88  1921.70  1934.32
                             1935.36  1964.81  1970.09  1974.94  1989.31
                             2013.59  2019.44  2035.01  2039.90  2055.25
                             2065.82  2132.04  2141.58  2146.26  2148.12
                             2154.65  2164.62  2174.60  2193.32  4345.02
                             4374.35  4392.44  4407.86  4416.56  4423.95
                             4429.65  4430.08  4434.09  4437.93  4482.10
                             4486.00  4490.10  4506.40  4509.48  4510.12
                             4525.29  4527.59

 Zero-point correction=                           0.280800 (Hartree/Particle)
 Thermal correction to Energy=                    0.292613
 Thermal correction to Enthalpy=                  0.293557
 Thermal correction to Gibbs Free Energy=         0.242498
 Sum of electronic and zero-point Energies=           -617.214439
 Sum of electronic and thermal Energies=              -617.202626
 Sum of electronic and thermal Enthalpies=            -617.201681
 Sum of electronic and thermal Free Energies=         -617.252740

                     E (Thermal)             CV                S
                      KCal/Mol        Cal/Mol-Kelvin    Cal/Mol-Kelvin
 Total                  183.617             46.833            107.461
 Electronic               0.000              0.000              0.000
 Translational            0.889              2.981             41.570
 Rotational               0.889              2.981             31.309
 Vibrational            181.840             40.871             34.583
 Vibration     1          0.596              1.977              4.767
 Vibration     2          0.597              1.973              4.410
 Vibration     3          0.602              1.956              3.638
 Vibration     4          0.609              1.933              3.111
 Vibration     5          0.636              1.847              2.180
 Vibration     6          0.643              1.824              2.035
 Vibration     7          0.664              1.759              1.716
 Vibration     8          0.672              1.735              1.622
 Vibration     9          0.711              1.621              1.273
 Vibration    10          0.714              1.612              1.252
 Vibration    11          0.757              1.494              1.005
 Vibration    12          0.793              1.401              0.852
 Vibration    13          0.810              1.359              0.793
 Vibration    14          0.834              1.301              0.718
 Vibration    15          0.852              1.258              0.667
 Vibration    16          0.907              1.136              0.541
 Vibration    17          0.978              0.993              0.419

                           ! Non-Optimized Parameters !
 Normal termination of Gaussian 16 at Mon Nov  5 02:29:49 2018.
