 Gaussian 16, Revision A.03,
 Gaussian 16:  ES64L-G16RevA.03 25-Dec-2016

 ----------------------------------------------------------------------
 #M062X/6-311++G(2d,2p) opt=ModRedundant freq=noraman SCRF=(Solvent=Wat
 er)
 ----------------------------------------------------------------------

 -----------------------------
 2SO_1_e4_D_PSI.inp_extract_23
 -----------------------------
 Symbolic Z-matrix:
 Charge =  0 Multiplicity = 1

 SCF Done:  E(RM062X) =  -617.496558022     A.U. after   12 cycles
 SCF Done:  E(RM062X) =  -617.498121772     A.U. after   10 cycles
 SCF Done:  E(RM062X) =  -617.498323753     A.U. after   10 cycles
 SCF Done:  E(RM062X) =  -617.498367255     A.U. after    9 cycles
 SCF Done:  E(RM062X) =  -617.498378670     A.U. after    9 cycles
 SCF Done:  E(RM062X) =  -617.498380245     A.U. after    8 cycles
 SCF Done:  E(RM062X) =  -617.498380373     A.U. after    6 cycles
 Optimization completed.
    -- Stationary point found.
 Normal termination of Gaussian 16 at Mon Nov  5 01:21:11 2018.

 ----------------------------------------------------------------------
 #N Geom=AllCheck Guess=TCheck SCRF=Check GenChk RM062X/6-311++G(2d,2p)
  Freq
 ----------------------------------------------------------------------

 Structure from the checkpoint file:  "2SO_1_e4_D_PSI.inp_extract_23.chk"
 -----------------------------
 2SO_1_e4_D_PSI.inp_extract_23
 -----------------------------
 Charge =  0 Multiplicity = 1

                         Standard orientation:
 ---------------------------------------------------------------------
 Center     Atomic      Atomic             Coordinates (Angstroms)
 Number     Number       Type             X           Y           Z
 ---------------------------------------------------------------------
      1          6           0        1.098676   -0.108386   -0.079785
      2          6           0       -3.805906    0.765401    0.029481
      3          6           0       -1.214427   -0.623364   -0.277871
      4          6           0       -2.410537    1.392934   -0.057029
      5          6           0       -3.690675   -0.765247   -0.057186
      6          6           0        1.717183    1.107538    0.586889
      7          6           0        2.052056   -1.294483   -0.002580
      8          6           0        3.942906    0.094534    0.070131
      9          8           0        3.300754   -0.987238   -0.593950
     10          6           0        3.105954    1.362439    0.000357
     11          8           0       -0.112893   -0.460917    0.579081
     12          6           0       -2.359322   -1.210803    0.540927
     13          8           0       -1.566763    0.599053   -0.887931
     14          1           0        0.899013    0.120644   -1.129747
     15          1           0       -4.441128    1.141196   -0.771517
     16          1           0       -4.264649    1.059284    0.974510
     17          1           0       -0.942945   -1.277544   -1.110750
     18          1           0       -2.437990    2.384373   -0.501452
     19          1           0       -1.957173    1.481751    0.933080
     20          1           0       -3.732592   -1.080150   -1.100854
     21          1           0       -4.522583   -1.245016    0.454613
     22          1           0        1.062909    1.970398    0.459973
     23          1           0        1.798282    0.905775    1.658840
     24          1           0        1.642732   -2.150360   -0.537450
     25          1           0        2.188101   -1.571577    1.050518
     26          1           0        4.121210   -0.181258    1.116730
     27          1           0        4.904680    0.225374   -0.420957
     28          1           0        3.612354    2.163377    0.539152
     29          1           0        3.018848    1.670758   -1.043752
     30          1           0       -2.271624   -0.853102    1.568849
     31          1           0       -2.261673   -2.294492    0.562620
 ---------------------------------------------------------------------

 SCF Done:  E(RM062X) =  -617.498380373     A.U. after    1 cycles

 The electronic state is 1-A.
 Alpha  occ. eigenvalues --  -19.63371 -19.63138 -19.63054 -10.63686 -10.58555
 Alpha  occ. eigenvalues --  -10.58068 -10.57986 -10.57883 -10.53280 -10.53271
 Alpha  occ. eigenvalues --  -10.53224 -10.53153 -10.52923  -1.20192  -1.16629
 Alpha  occ. eigenvalues --   -1.13696  -0.90965  -0.89776  -0.87116  -0.84216
 Alpha  occ. eigenvalues --   -0.75206  -0.74118  -0.73263  -0.70296  -0.65709
 Alpha  occ. eigenvalues --   -0.62583  -0.60406  -0.59117  -0.58380  -0.56735
 Alpha  occ. eigenvalues --   -0.55220  -0.52843  -0.52397  -0.49583  -0.49140
 Alpha  occ. eigenvalues --   -0.47751  -0.47306  -0.45913  -0.45584  -0.44515
 Alpha  occ. eigenvalues --   -0.44362  -0.42802  -0.40629  -0.40297  -0.39017
 Alpha  occ. eigenvalues --   -0.38498  -0.38245  -0.36003  -0.35723  -0.34167
 Alpha  occ. eigenvalues --   -0.31852
 Alpha virt. eigenvalues --   -0.00088   0.00750   0.00852   0.01044   0.02108
 Alpha virt. eigenvalues --    0.02437   0.02562   0.03608   0.03645   0.04158
 Alpha virt. eigenvalues --    0.04394   0.04737   0.05654   0.05767   0.06969

 Mulliken charges:
               1
     1  C   -0.073536
     2  C   -0.541812
     3  C   -0.335946
     4  C    0.013895
     5  C   -0.191532
     6  C   -0.201778
     7  C   -0.276778
     8  C   -0.169295
     9  O   -0.330478
    10  C   -0.367413
    11  O   -0.251355
    12  C   -0.277517
    13  O   -0.280487
    14  H    0.263143
    15  H    0.163220
    16  H    0.147387
    17  H    0.236363
    18  H    0.206810
    19  H    0.132962
    20  H    0.157008
    21  H    0.192014
    22  H    0.138156
    23  H    0.206362
    24  H    0.192451
    25  H    0.185028
    26  H    0.138166
    27  H    0.209397
    28  H    0.183777
    29  H    0.161618
    30  H    0.196376
    31  H    0.173796
 Sum of Mulliken charges =  -0.00000

 Dipole moment (field-independent basis, Debye):
    X=             -1.5507    Y=              1.0458    Z=              1.4422  Tot=              2.3619
 Quadrupole moment (field-independent basis, Debye-Ang):
   XX=            -74.2491   YY=            -77.7080   ZZ=            -83.3817
   XY=              6.1336   XZ=              2.4794   YZ=              0.7795

  Exact polarizability: 177.883   1.694 160.707   0.105   0.251 147.436
 Approx polarizability: 146.749   0.697 142.645  -0.186   0.359 142.470

 ******    1 imaginary frequencies (negative Signs) ******

                      1                      2                      3
                      A                      A                      A
 Frequencies --    -26.2129                50.7245                74.6261
 Red. masses --      3.7422                 3.9818                 3.5177
 Frc consts  --      0.0015                 0.0060                 0.0115
 IR Inten    --      1.1668                 0.8934                 1.3182

                      4                      5                      6
                      A                      A                      A
 Frequencies --    110.7849               188.2579               205.1787
 Red. masses --      2.9707                 2.9539                 1.7954
 Frc consts  --      0.0215                 0.0617                 0.0445
 IR Inten    --      3.5201                 0.3296                 1.6620

                      7                      8                      9
                      A                      A                      A
 Frequencies --    245.8941               264.8549               308.1445
 Red. masses --      2.1159                 3.6826                 2.2889
 Frc consts  --      0.0754                 0.1522                 0.1280
 IR Inten    --      4.9886                 1.3857                 2.8438

                     10                     11                     12
                      A                      A                      A
 Frequencies --    353.3407               383.4502               444.8798
 Red. masses --      4.0357                 2.4607                 3.4511
 Frc consts  --      0.2969                 0.2132                 0.4024
 IR Inten    --     29.0058                 6.8880                 3.7501

                     13                     14                     15
                      A                      A                      A
 Frequencies --    447.8569               472.7717               503.3345
 Red. masses --      2.4869                 3.5270                 2.9676
 Frc consts  --      0.2939                 0.4645                 0.4430
 IR Inten    --      2.8936                 2.0846                 6.1309

                     16                     17                     18
                      A                      A                      A
 Frequencies --    546.6070               602.8135               632.7323
 Red. masses --      3.5713                 2.5219                 1.9665
 Frc consts  --      0.6287                 0.5399                 0.4638
 IR Inten    --      0.6127                13.2212                 5.8602

                     19                     20                     21
                      A                      A                      A
 Frequencies --    664.6290               784.5296               834.0942
 Red. masses --      3.9996                 1.3003                 2.2681
 Frc consts  --      1.0409                 0.4715                 0.9297
 IR Inten    --      6.3053                 5.7159                 1.6152

                     22                     23                     24
                      A                      A                      A
 Frequencies --    842.5306               877.0898               893.9188
 Red. masses --      2.5419                 1.4103                 2.5415
 Frc consts  --      1.0631                 0.6392                 1.1966
 IR Inten    --      9.4591                11.4393                12.4367

                     25                     26                     27
                      A                      A                      A
 Frequencies --    898.8193               920.5278               942.4983
 Red. masses --      2.3154                 2.1306                 2.2960
 Frc consts  --      1.1021                 1.0637                 1.2017
 IR Inten    --      8.0171                34.5006                44.9893

                     28                     29                     30
                      A                      A                      A
 Frequencies --    968.8239               986.5975               993.7801
 Red. masses --      1.7874                 2.2455                 1.4623
 Frc consts  --      0.9885                 1.2878                 0.8509
 IR Inten    --     14.3527                40.8133                 3.0558

                     31                     32                     33
                      A                      A                      A
 Frequencies --   1007.6816              1052.0304              1071.4822
 Red. masses --      2.0015                 1.6870                 2.0251
 Frc consts  --      1.1974                 1.1001                 1.3698
 IR Inten    --      6.7677                10.4448               245.0602

                     34                     35                     36
                      A                      A                      A
 Frequencies --   1079.9827              1086.7793              1112.6012
 Red. masses --      2.7862                 2.7237                 4.0208
 Frc consts  --      1.9147                 1.8954                 2.9325
 IR Inten    --     61.4154                41.0899               293.7928

                     37                     38                     39
                      A                      A                      A
 Frequencies --   1149.7185              1151.6784              1156.4107
 Red. masses --      3.2260                 3.7308                 2.3130
 Frc consts  --      2.5125                 2.9155                 1.8224
 IR Inten    --    151.0933               133.6387                25.1698

                     40                     41                     42
                      A                      A                      A
 Frequencies --   1169.3933              1192.1552              1208.4892
 Red. masses --      2.3477                 2.1050                 1.4417
 Frc consts  --      1.8916                 1.7627                 1.2405
 IR Inten    --     30.4869                45.1129                 9.1947

                     43                     44                     45
                      A                      A                      A
 Frequencies --   1223.4270              1243.4760              1249.2926
 Red. masses --      1.6272                 1.6553                 1.4927
 Frc consts  --      1.4350                 1.5080                 1.3726
 IR Inten    --     13.9848                46.5760                30.0598

                     46                     47                     48
                      A                      A                      A
 Frequencies --   1290.2012              1304.1778              1307.5189
 Red. masses --      1.1997                 1.1885                 1.1794
 Frc consts  --      1.1766                 1.1911                 1.1879
 IR Inten    --      3.4708                18.7856                11.1035

                     49                     50                     51
                      A                      A                      A
 Frequencies --   1328.8166              1341.0133              1343.2911
 Red. masses --      1.3013                 1.2716                 1.2777
 Frc consts  --      1.3538                 1.3473                 1.3584
 IR Inten    --      8.3578                 2.1695                 9.0045

                     52                     53                     54
                      A                      A                      A
 Frequencies --   1357.9273              1366.9301              1372.2652
 Red. masses --      1.2759                 1.4089                 1.3965
 Frc consts  --      1.3862                 1.5510                 1.5494
 IR Inten    --      8.1941                 1.8308                 0.9003

                     55                     56                     57
                      A                      A                      A
 Frequencies --   1382.6864              1394.8447              1399.7207
 Red. masses --      1.4447                 1.4474                 1.2778
 Frc consts  --      1.6273                 1.6591                 1.4750
 IR Inten    --      3.6871                17.4800                22.3426

                     58                     59                     60
                      A                      A                      A
 Frequencies --   1407.7247              1421.2657              1429.2657
 Red. masses --      1.4279                 1.4206                 1.3533
 Frc consts  --      1.6672                 1.6907                 1.6288
 IR Inten    --     26.8349                 6.7710                21.3399

                     61                     62                     63
                      A                      A                      A
 Frequencies --   1444.2449              1481.3731              1488.4858
 Red. masses --      1.4291                 1.0908                 1.0780
 Frc consts  --      1.7563                 1.4103                 1.4072
 IR Inten    --      3.4495                 7.4268                 2.7158

                     64                     65                     66
                      A                      A                      A
 Frequencies --   1493.2947              1493.9719              1500.2925
 Red. masses --      1.0993                 1.1088                 1.0909
 Frc consts  --      1.4442                 1.4581                 1.4467
 IR Inten    --     11.7723                 8.5287                 1.0037

                     67                     68                     69
                      A                      A                      A
 Frequencies --   1503.7120              1512.9819              1522.7969
 Red. masses --      1.0988                 1.1023                 1.0870
 Frc consts  --      1.4639                 1.4866                 1.4852
 IR Inten    --      9.8640                 9.7821                 3.8479

                     70                     71                     72
                      A                      A                      A
 Frequencies --   3017.7079              3020.6285              3055.3657
 Red. masses --      1.0687                 1.0704                 1.0687
 Frc consts  --      5.7342                 5.7542                 5.8780
 IR Inten    --     34.4458                98.6313                37.6341

                     73                     74                     75
                      A                      A                      A
 Frequencies --   3059.3332              3063.6604              3068.8214
 Red. masses --      1.0797                 1.0716                 1.0630
 Frc consts  --      5.9539                 5.9261                 5.8981
 IR Inten    --     43.4351                13.6481                26.2362

                     76                     77                     78
                      A                      A                      A
 Frequencies --   3074.3006              3076.1987              3078.9347
 Red. masses --      1.0811                 1.0661                 1.0635
 Frc consts  --      6.0201                 5.9442                 5.9400
 IR Inten    --     63.6857                15.4264                43.9668

                     79                     80                     81
                      A                      A                      A
 Frequencies --   3083.2517              3113.3283              3117.4435
 Red. masses --      1.0632                 1.0988                 1.0995
 Frc consts  --      5.9549                 6.2753                 6.2957
 IR Inten    --     47.1164                41.5326                31.4973

                     82                     83                     84
                      A                      A                      A
 Frequencies --   3120.0083              3124.5069              3132.8387
 Red. masses --      1.1027                 1.0961                 1.1014
 Frc consts  --      6.3242                 6.3045                 6.3687
 IR Inten    --     54.1676                43.2447                44.1810

                     85                     86                     87
                      A                      A                      A
 Frequencies --   3134.7863              3136.2120              3145.2113
 Red. masses --      1.0947                 1.1002                 1.1000
 Frc consts  --      6.3380                 6.3756                 6.4113
 IR Inten    --     43.4819                49.1698                45.2028

 - Thermochemistry -
 -------------------
 Temperature   298.150 Kelvin.  Pressure   1.00000 Atm.
 Atom     1 has atomic number  6 and mass  12.00000

 Molecular mass:   186.12559 amu.
 Principal axes and moments of inertia in atomic units:
                           1         2         3
     Eigenvalues --   824.620444740.298995214.74375
           X            0.99996   0.00877   0.00172
           Y           -0.00878   0.99995   0.00526
           Z           -0.00168  -0.00528   0.99998
 This molecule is an asymmetric top.
 Rotational symmetry number  1.
 Warning -- assumption of classical behavior for rotation
           may cause significant error
 Rotational temperatures (Kelvin)      0.10503     0.01827     0.01661
 Rotational constants (GHZ):           2.18857     0.38072     0.34608
    1 imaginary frequencies ignored.
 Zero-point vibrational energy     736361.5 (Joules/Mol)
                                  175.99462 (Kcal/Mol)
 Warning -- explicit consideration of  16 degrees of freedom as
           vibrations may cause significant error
 Vibrational temperatures:     72.98   107.37   159.39   270.86   295.21
          (Kelvin)            353.79   381.07   443.35   508.38   551.70
                              640.08   644.37   680.21   724.19   786.45
                              867.31   910.36   956.25  1128.76  1200.08
                             1212.21  1261.94  1286.15  1293.20  1324.43
                             1356.04  1393.92  1419.49  1429.83  1449.83
                             1513.64  1541.62  1553.85  1563.63  1600.78
                             1654.19  1657.01  1663.82  1682.50  1715.25
                             1738.75  1760.24  1789.08  1797.45  1856.31
                             1876.42  1881.23  1911.87  1929.42  1932.70
                             1953.75  1966.71  1974.38  1989.38  2006.87
                             2013.89  2025.40  2044.88  2056.39  2077.95
                             2131.37  2141.60  2148.52  2149.49  2158.59
                             2163.51  2176.84  2190.97  4341.81  4346.01
                             4395.99  4401.70  4407.92  4415.35  4423.23
                             4425.96  4429.90  4436.11  4479.39  4485.31
                             4489.00  4495.47  4507.46  4510.26  4512.31
                             4525.26

 Zero-point correction=                           0.280465 (Hartree/Particle)
 Thermal correction to Energy=                    0.291540
 Thermal correction to Enthalpy=                  0.292485
 Thermal correction to Gibbs Free Energy=         0.243146
 Sum of electronic and zero-point Energies=           -617.217915
 Sum of electronic and thermal Energies=              -617.206840
 Sum of electronic and thermal Enthalpies=            -617.205896
 Sum of electronic and thermal Free Energies=         -617.255234

                     E (Thermal)             CV                S
                      KCal/Mol        Cal/Mol-Kelvin    Cal/Mol-Kelvin
 Total                  182.944             44.860            103.841
 Electronic               0.000              0.000              0.000
 Translational            0.889              2.981             41.570
 Rotational               0.889              2.981             31.389
 Vibrational            181.167             38.898             30.883
 Vibration     1          0.595              1.977              4.789
 Vibration     2          0.599              1.966              4.027
 Vibration     3          0.607              1.941              3.255
 Vibration     4          0.633              1.856              2.245
 Vibration     5          0.640              1.833              2.086
 Vibration     6          0.660              1.770              1.760
 Vibration     7          0.671              1.737              1.630
 Vibration     8          0.698              1.658              1.372
 Vibration     9          0.730              1.568              1.151
 Vibration    10          0.753              1.505              1.026
 Vibration    11          0.804              1.372              0.811
 Vibration    12          0.807              1.366              0.802
 Vibration    13          0.830              1.310              0.730
 Vibration    14          0.859              1.243              0.650
 Vibration    15          0.902              1.147              0.551
 Vibration    16          0.961              1.026              0.445

 Optimization completed.
    -- Stationary point found.
 Normal termination of Gaussian 16 at Mon Nov  5 02:15:36 2018.
