 Gaussian 16, Revision A.03,
 Gaussian 16:  ES64L-G16RevA.03 25-Dec-2016

 ----------------------------------------------------------------------
 #M062X/6-311++G(2d,2p) opt=ModRedundant freq=noraman SCRF=(Solvent=Wat
 er)
 ----------------------------------------------------------------------

 ----------------------------
 2SO_1_e4_D_PSI.inp_extract_1
 ----------------------------
 Symbolic Z-matrix:
 Charge =  0 Multiplicity = 1

 SCF Done:  E(RM062X) =  -617.496500743     A.U. after   12 cycles
 SCF Done:  E(RM062X) =  -617.498038136     A.U. after   10 cycles
 SCF Done:  E(RM062X) =  -617.498205556     A.U. after   10 cycles
 SCF Done:  E(RM062X) =  -617.498251564     A.U. after   10 cycles
 SCF Done:  E(RM062X) =  -617.498259744     A.U. after    9 cycles
 SCF Done:  E(RM062X) =  -617.498260892     A.U. after    8 cycles
 SCF Done:  E(RM062X) =  -617.498261001     A.U. after    6 cycles
 SCF Done:  E(RM062X) =  -617.498261040     A.U. after    6 cycles
 Optimization completed.
    -- Stationary point found.
 Normal termination of Gaussian 16 at Sun Nov  4 22:01:58 2018.

 ----------------------------------------------------------------------
 #N Geom=AllCheck Guess=TCheck SCRF=Check GenChk RM062X/6-311++G(2d,2p)
  Freq
 ----------------------------------------------------------------------

 Structure from the checkpoint file:  "2SO_1_e4_D_PSI.inp_extract_1.chk"
 ----------------------------
 2SO_1_e4_D_PSI.inp_extract_1
 ----------------------------
 Charge =  0 Multiplicity = 1

                         Standard orientation:
 ---------------------------------------------------------------------
 Center     Atomic      Atomic             Coordinates (Angstroms)
 Number     Number       Type             X           Y           Z
 ---------------------------------------------------------------------
      1          6           0        1.108696    0.125389   -0.016653
      2          6           0       -3.899177    0.610124   -0.161395
      3          6           0       -1.176440   -0.542154   -0.109163
      4          6           0       -2.570173    1.339521   -0.382827
      5          6           0       -3.631465   -0.874696    0.135008
      6          6           0        1.968389    1.080343    0.792469
      7          6           0        1.851003   -1.199727   -0.186077
      8          6           0        3.957223   -0.170925   -0.057930
      9          8           0        3.097992   -1.003638   -0.826366
     10          6           0        3.348941    1.206805    0.148838
     11          8           0       -0.111409   -0.079333    0.685201
     12          6           0       -2.280013   -1.019998    0.828348
     13          8           0       -1.624331    0.463751   -0.991850
     14          1           0        0.903536    0.555219   -1.001300
     15          1           0       -4.537278    0.710337   -1.038368
     16          1           0       -4.419686    1.077401    0.675648
     17          1           0       -0.840021   -1.348390   -0.763837
     18          1           0       -2.680536    2.188554   -1.052298
     19          1           0       -2.163049    1.708378    0.561460
     20          1           0       -3.612413   -1.440180   -0.797816
     21          1           0       -4.426128   -1.296174    0.747429
     22          1           0        1.475665    2.049631    0.868004
     23          1           0        2.065048    0.676852    1.804440
     24          1           0        1.290353   -1.899553   -0.802527
     25          1           0        1.998205   -1.647094    0.805168
     26          1           0        4.146989   -0.648084    0.911298
     27          1           0        4.895976   -0.113997   -0.604587
     28          1           0        4.010612    1.808126    0.772338
     29          1           0        3.264101    1.705098   -0.819139
     30          1           0       -2.254836   -0.411773    1.734875
     31          1           0       -2.076455   -2.048696    1.119622
 ---------------------------------------------------------------------

 SCF Done:  E(RM062X) =  -617.498261040     A.U. after    1 cycles

 The electronic state is 1-A.
 Alpha  occ. eigenvalues --  -19.63498 -19.63206 -19.63045 -10.63649 -10.58626
 Alpha  occ. eigenvalues --  -10.58077 -10.58066 -10.57892 -10.53310 -10.53299
 Alpha  occ. eigenvalues --  -10.53263 -10.53232 -10.52926  -1.20160  -1.16694
 Alpha  occ. eigenvalues --   -1.13756  -0.90992  -0.89832  -0.87018  -0.84356
 Alpha  occ. eigenvalues --   -0.75326  -0.74356  -0.73135  -0.70197  -0.65701
 Alpha  occ. eigenvalues --   -0.62515  -0.60734  -0.59126  -0.58235  -0.56701
 Alpha  occ. eigenvalues --   -0.55505  -0.52955  -0.52318  -0.49876  -0.49256
 Alpha  occ. eigenvalues --   -0.47828  -0.46442  -0.46069  -0.45562  -0.44676
 Alpha  occ. eigenvalues --   -0.44478  -0.43268  -0.40620  -0.40253  -0.39121
 Alpha  occ. eigenvalues --   -0.38519  -0.38037  -0.36225  -0.35638  -0.34127
 Alpha  occ. eigenvalues --   -0.31984
 Alpha virt. eigenvalues --   -0.00092   0.00755   0.00941   0.00961   0.02110
 Alpha virt. eigenvalues --    0.02387   0.02541   0.03597   0.03835   0.04166
 Alpha virt. eigenvalues --    0.04307   0.04624   0.05483   0.05915   0.06785

 Mulliken charges:
               1
     1  C   -0.281317
     2  C   -0.519161
     3  C   -0.271952
     4  C   -0.014401
     5  C   -0.180538
     6  C   -0.203402
     7  C   -0.230881
     8  C   -0.173725
     9  O   -0.326528
    10  C   -0.347330
    11  O   -0.249606
    12  C   -0.254832
    13  O   -0.277028
    14  H    0.268198
    15  H    0.162405
    16  H    0.145362
    17  H    0.251070
    18  H    0.203263
    19  H    0.141912
    20  H    0.151429
    21  H    0.195296
    22  H    0.152070
    23  H    0.206771
    24  H    0.199593
    25  H    0.191785
    26  H    0.137962
    27  H    0.207652
    28  H    0.187015
    29  H    0.164008
    30  H    0.198858
    31  H    0.166053
 Sum of Mulliken charges =  -0.00000

 Dipole moment (field-independent basis, Debye):
    X=             -1.1373    Y=              0.6688    Z=              1.7709  Tot=              2.2084
 Quadrupole moment (field-independent basis, Debye-Ang):
   XX=            -71.0872   YY=            -77.5247   ZZ=            -84.8103
   XY=              4.6417   XZ=              3.1210   YZ=             -1.1126

  Exact polarizability: 179.478   1.453 158.254   0.604  -1.059 148.198
 Approx polarizability: 147.583   0.345 141.653   0.239  -0.046 142.346

                      1                      2                      3
                      A                      A                      A
 Frequencies --     32.1115                47.1468                72.2410
 Red. masses --      3.4404                 3.8194                 3.4848
 Frc consts  --      0.0021                 0.0050                 0.0107
 IR Inten    --      0.2120                 1.6074                 1.2223

                      4                      5                      6
                      A                      A                      A
 Frequencies --    128.1034               175.3929               207.2216
 Red. masses --      3.0912                 2.9399                 1.8922
 Frc consts  --      0.0299                 0.0533                 0.0479
 IR Inten    --      4.3747                 0.8621                 3.2911

                      7                      8                      9
                      A                      A                      A
 Frequencies --    246.1110               269.8503               299.6945
 Red. masses --      2.1202                 3.7226                 2.4441
 Frc consts  --      0.0757                 0.1597                 0.1293
 IR Inten    --      3.9336                 1.6670                 5.2621

                     10                     11                     12
                      A                      A                      A
 Frequencies --    364.5868               379.1692               447.8051
 Red. masses --      3.3210                 2.5892                 3.6617
 Frc consts  --      0.2601                 0.2193                 0.4326
 IR Inten    --     28.8840                 5.1200                 3.7592

                     13                     14                     15
                      A                      A                      A
 Frequencies --    454.9601               468.5424               501.3527
 Red. masses --      2.2273                 3.7428                 3.1269
 Frc consts  --      0.2716                 0.4841                 0.4631
 IR Inten    --      0.6818                 3.3676                 6.1974

                     16                     17                     18
                      A                      A                      A
 Frequencies --    544.1011               591.9555               630.7238
 Red. masses --      3.6481                 2.4235                 1.9591
 Frc consts  --      0.6363                 0.5003                 0.4592
 IR Inten    --      0.3287                11.9515                 6.4868

                     19                     20                     21
                      A                      A                      A
 Frequencies --    670.3085               782.4363               834.2305
 Red. masses --      3.9792                 1.3011                 2.2211
 Frc consts  --      1.0534                 0.4693                 0.9107
 IR Inten    --      5.1070                 5.7044                 0.9913

                     22                     23                     24
                      A                      A                      A
 Frequencies --    842.9104               878.7973               893.2993
 Red. masses --      2.5495                 1.4034                 2.5461
 Frc consts  --      1.0672                 0.6386                 1.1971
 IR Inten    --     11.0558                 9.9997                 8.9536

                     25                     26                     27
                      A                      A                      A
 Frequencies --    900.5554               919.2724               943.2554
 Red. masses --      2.3637                 2.1619                 2.3136
 Frc consts  --      1.1294                 1.0764                 1.2128
 IR Inten    --     14.1740                29.0289                30.4446

                     28                     29                     30
                      A                      A                      A
 Frequencies --    970.6928               985.4758               995.3631
 Red. masses --      1.7226                 2.1710                 1.5907
 Frc consts  --      0.9563                 1.2423                 0.9286
 IR Inten    --      5.6006                49.3975                10.7721

                     31                     32                     33
                      A                      A                      A
 Frequencies --   1006.3820              1053.4399              1070.6493
 Red. masses --      1.9733                 1.7622                 2.3691
 Frc consts  --      1.1775                 1.1522                 1.6000
 IR Inten    --      4.6355                12.6741               328.4190

                     34                     35                     36
                      A                      A                      A
 Frequencies --   1077.0599              1085.1514              1113.8771
 Red. masses --      2.7002                 2.2342                 4.0108
 Frc consts  --      1.8456                 1.5501                 2.9319
 IR Inten    --     59.4291                20.7223               300.7900

                     37                     38                     39
                      A                      A                      A
 Frequencies --   1145.1216              1151.5425              1153.0874
 Red. masses --      2.9696                 3.2612                 2.9119
 Frc consts  --      2.2943                 2.5480                 2.2812
 IR Inten    --    138.3214                49.7236                63.1719

                     40                     41                     42
                      A                      A                      A
 Frequencies --   1171.8126              1190.9528              1210.1368
 Red. masses --      2.3301                 2.1156                 1.4105
 Frc consts  --      1.8851                 1.7679                 1.2170
 IR Inten    --     39.1831                26.9232                 4.6630

                     43                     44                     45
                      A                      A                      A
 Frequencies --   1225.6206              1244.0939              1252.6285
 Red. masses --      1.6476                 1.6455                 1.4748
 Frc consts  --      1.4582                 1.5006                 1.3634
 IR Inten    --     30.8428                45.1559                24.4135

                     46                     47                     48
                      A                      A                      A
 Frequencies --   1290.5046              1304.8372              1307.5580
 Red. masses --      1.2019                 1.1735                 1.1783
 Frc consts  --      1.1793                 1.1771                 1.1870
 IR Inten    --      4.5352                13.1018                12.3095

                     49                     50                     51
                      A                      A                      A
 Frequencies --   1329.5477              1336.2966              1347.1508
 Red. masses --      1.2787                 1.2191                 1.3140
 Frc consts  --      1.3318                 1.2826                 1.4050
 IR Inten    --      6.6757                 9.9389                 4.0440

                     52                     53                     54
                      A                      A                      A
 Frequencies --   1353.0385              1367.0700              1373.5822
 Red. masses --      1.2633                 1.4171                 1.4186
 Frc consts  --      1.3626                 1.5604                 1.5769
 IR Inten    --      5.1470                 2.6965                 1.1189

                     55                     56                     57
                      A                      A                      A
 Frequencies --   1383.2262              1399.9210              1403.3811
 Red. masses --      1.4534                 1.4532                 1.2698
 Frc consts  --      1.6384                 1.6780                 1.4735
 IR Inten    --      4.3685                15.5129                 3.4246

                     58                     59                     60
                      A                      A                      A
 Frequencies --   1410.5265              1425.5344              1431.6359
 Red. masses --      1.4285                 1.4766                 1.2649
 Frc consts  --      1.6745                 1.7680                 1.5275
 IR Inten    --     24.3514                24.5365                13.7591

                     61                     62                     63
                      A                      A                      A
 Frequencies --   1434.0722              1483.0071              1487.2509
 Red. masses --      1.5030                 1.0914                 1.0784
 Frc consts  --      1.8212                 1.4143                 1.4054
 IR Inten    --      3.1186                 7.5431                 2.6807

                     64                     65                     66
                      A                      A                      A
 Frequencies --   1492.8565              1495.0334              1500.6611
 Red. masses --      1.0963                 1.1096                 1.0904
 Frc consts  --      1.4395                 1.4612                 1.4468
 IR Inten    --      8.5210                11.1536                 0.8470

                     67                     68                     69
                      A                      A                      A
 Frequencies --   1503.2015              1513.4727              1523.3140
 Red. masses --      1.0983                 1.1022                 1.0867
 Frc consts  --      1.4622                 1.4875                 1.4857
 IR Inten    --      9.6484                 8.8765                 4.0406

                     70                     71                     72
                      A                      A                      A
 Frequencies --   3017.9989              3021.3230              3055.7352
 Red. masses --      1.0694                 1.0704                 1.0693
 Frc consts  --      5.7391                 5.7571                 5.8830
 IR Inten    --     35.6696                92.2756                12.0520

                     73                     74                     75
                      A                      A                      A
 Frequencies --   3062.4396              3067.1380              3071.4686
 Red. masses --      1.0692                 1.0779                 1.0623
 Frc consts  --      5.9078                 5.9746                 5.9048
 IR Inten    --     41.7155                39.6414                51.5456

                     76                     77                     78
                      A                      A                      A
 Frequencies --   3074.9814              3079.2046              3081.7321
 Red. masses --      1.0682                 1.0629                 1.0723
 Frc consts  --      5.9508                 5.9379                 6.0003
 IR Inten    --     15.6230                35.9950                34.0687

                     79                     80                     81
                      A                      A                      A
 Frequencies --   3084.1179              3115.7323              3117.9818
 Red. masses --      1.0746                 1.0984                 1.0991
 Frc consts  --      6.0224                 6.2825                 6.2954
 IR Inten    --     51.6534                41.2320                30.4373

                     82                     83                     84
                      A                      A                      A
 Frequencies --   3121.2546              3131.9560              3132.8798
 Red. masses --      1.1030                 1.1017                 1.0943
 Frc consts  --      6.3313                 6.3670                 6.3281
 IR Inten    --     55.2258                43.4839                49.7399

                     85                     86                     87
                      A                      A                      A
 Frequencies --   3134.8863              3136.6004              3145.4441
 Red. masses --      1.0964                 1.0984                 1.0999
 Frc consts  --      6.3486                 6.3668                 6.4119
 IR Inten    --     28.2020                62.1526                47.1026

 - Thermochemistry -
 -------------------
 Temperature   298.150 Kelvin.  Pressure   1.00000 Atm.
 Atom     1 has atomic number  6 and mass  12.00000

 Molecular mass:   186.12559 amu.
 Principal axes and moments of inertia in atomic units:
                           1         2         3
     Eigenvalues --   816.012394883.798815193.21138
           X            0.99997   0.00736   0.00249
           Y           -0.00733   0.99991  -0.01123
           Z           -0.00258   0.01121   0.99993
 This molecule is an asymmetric top.
 Rotational symmetry number  1.
 Warning -- assumption of classical behavior for rotation
           may cause significant error
 Rotational temperatures (Kelvin)      0.10614     0.01773     0.01668
 Rotational constants (GHZ):           2.21166     0.36954     0.34752
 Zero-point vibrational energy     736772.7 (Joules/Mol)
                                  176.09290 (Kcal/Mol)
 Warning -- explicit consideration of  17 degrees of freedom as
           vibrations may cause significant error
 Vibrational temperatures:     46.20    67.83   103.94   184.31   252.35
          (Kelvin)            298.15   354.10   388.25   431.19   524.56
                              545.54   644.29   654.59   674.13   721.33
                              782.84   851.69   907.47   964.42  1125.75
                             1200.27  1212.76  1264.39  1285.26  1295.70
                             1322.63  1357.13  1396.61  1417.88  1432.11
                             1447.96  1515.67  1540.43  1549.65  1561.29
                             1602.62  1647.57  1656.81  1659.04  1685.98
                             1713.52  1741.12  1763.39  1789.97  1802.25
                             1856.75  1877.37  1881.28  1912.92  1922.63
                             1938.25  1946.72  1966.91  1976.28  1990.15
                             2014.17  2019.15  2029.43  2051.03  2059.80
                             2063.31  2133.72  2139.82  2147.89  2151.02
                             2159.12  2162.77  2177.55  2191.71  4342.23
                             4347.01  4396.52  4406.17  4412.93  4419.16
                             4424.21  4430.29  4433.93  4437.36  4482.84
                             4486.08  4490.79  4506.19  4507.52  4510.40
                             4512.87  4525.59

 Zero-point correction=                           0.280622 (Hartree/Particle)
 Thermal correction to Energy=                    0.292566
 Thermal correction to Enthalpy=                  0.293510
 Thermal correction to Gibbs Free Energy=         0.241446
 Sum of electronic and zero-point Energies=           -617.217639
 Sum of electronic and thermal Energies=              -617.205695
 Sum of electronic and thermal Enthalpies=            -617.204751
 Sum of electronic and thermal Free Energies=         -617.256815

                     E (Thermal)             CV                S
                      KCal/Mol        Cal/Mol-Kelvin    Cal/Mol-Kelvin
 Total                  183.588             46.848            109.579
 Electronic               0.000              0.000              0.000
 Translational            0.889              2.981             41.570
 Rotational               0.889              2.981             31.404
 Vibrational            181.811             40.887             36.605
 Vibration     1          0.594              1.983              5.695
 Vibration     2          0.595              1.979              4.934
 Vibration     3          0.598              1.967              4.091
 Vibration     4          0.611              1.925              2.974
 Vibration     5          0.627              1.873              2.377
 Vibration     6          0.641              1.830              2.068
 Vibration     7          0.661              1.769              1.758
 Vibration     8          0.674              1.729              1.597
 Vibration     9          0.692              1.674              1.419
 Vibration    10          0.738              1.545              1.102
 Vibration    11          0.749              1.515              1.042
 Vibration    12          0.807              1.366              0.802
 Vibration    13          0.813              1.350              0.781
 Vibration    14          0.826              1.320              0.742
 Vibration    15          0.857              1.247              0.655
 Vibration    16          0.899              1.153              0.557
 Vibration    17          0.949              1.049              0.464

 Optimization completed.
    -- Stationary point found.
 Normal termination of Gaussian 16 at Sun Nov  4 22:56:02 2018.
