 Gaussian 16, Revision A.03,
 Gaussian 16:  ES64L-G16RevA.03 25-Dec-2016

 ----------------------------------------------------------------------
 #M062X/6-311++G(2d,2p) opt=ModRedundant freq=noraman SCRF=(Solvent=Wat
 er)
 ----------------------------------------------------------------------

 ---------------------------
 L_a1-e4_D_PSI.inp_extract_6
 ---------------------------
 Symbolic Z-matrix:
 Charge =  0 Multiplicity = 1

 SCF Done:  E(RM062X) =  -617.495153052     A.U. after   12 cycles
 SCF Done:  E(RM062X) =  -617.496755939     A.U. after   12 cycles
 SCF Done:  E(RM062X) =  -617.497024318     A.U. after   11 cycles
 SCF Done:  E(RM062X) =  -617.497200086     A.U. after   10 cycles
 SCF Done:  E(RM062X) =  -617.497214977     A.U. after    9 cycles
 SCF Done:  E(RM062X) =  -617.497216219     A.U. after    8 cycles
 SCF Done:  E(RM062X) =  -617.497216392     A.U. after    7 cycles
 Optimization completed.
    -- Stationary point found.
 Normal termination of Gaussian 16 at Sun Nov  4 21:55:02 2018.

 ----------------------------------------------------------------------
 #N Geom=AllCheck Guess=TCheck SCRF=Check GenChk RM062X/6-311++G(2d,2p)
  Freq
 ----------------------------------------------------------------------

 Structure from the checkpoint file:  "L_a1-e4_D_PSI.inp_extract_6.chk"
 ---------------------------
 L_a1-e4_D_PSI.inp_extract_6
 ---------------------------
 Charge =  0 Multiplicity = 1

                         Standard orientation:
 ---------------------------------------------------------------------
 Center     Atomic      Atomic             Coordinates (Angstroms)
 Number     Number       Type             X           Y           Z
 ---------------------------------------------------------------------
      1          6           0       -2.324823   -1.233594   -0.738679
      2          8           0       -1.519736   -1.188434    0.440248
      3          6           0       -3.219537    1.034105   -0.219059
      4          8           0        2.766856   -1.353919    0.041907
      5          6           0       -1.110018    0.117884    0.792053
      6          6           0       -2.305938    1.034102    1.005528
      7          6           0        3.411288    0.906884   -0.554708
      8          8           0       -0.313505    0.700584   -0.205108
      9          6           0        1.985386    1.371732   -0.263472
     10          6           0        3.729278   -0.331527    0.266221
     11          6           0        1.010207    0.215662   -0.440241
     12          6           0        1.465752   -0.955153    0.436657
     13          6           0       -3.587724   -0.404276   -0.579124
     14          1           0       -1.739555   -0.874073   -1.589913
     15          1           0       -2.552627   -2.285229   -0.897342
     16          1           0       -2.702935    1.499168   -1.060669
     17          1           0       -4.113090    1.624639   -0.019550
     18          1           0       -0.550215   -0.007533    1.718696
     19          1           0       -2.852545    0.661271    1.873617
     20          1           0       -1.946131    2.035004    1.239772
     21          1           0        4.129725    1.694212   -0.326137
     22          1           0        3.512747    0.664444   -1.614634
     23          1           0        1.907436    1.724896    0.769153
     24          1           0        1.698781    2.195999   -0.916616
     25          1           0        4.693501   -0.755411   -0.005828
     26          1           0        3.747312   -0.082941    1.334342
     27          1           0        1.041830   -0.133390   -1.476877
     28          1           0        0.816008   -1.817041    0.320140
     29          1           0        1.482967   -0.661332    1.492608
     30          1           0       -4.165492   -0.444435   -1.503025
     31          1           0       -4.199869   -0.839013    0.214835
 ---------------------------------------------------------------------

 SCF Done:  E(RM062X) =  -617.497216392     A.U. after    1 cycles

 The electronic state is 1-A.
 Alpha  occ. eigenvalues --  -19.63217 -19.63118 -19.62828 -10.63608 -10.58926
 Alpha  occ. eigenvalues --  -10.58149 -10.58052 -10.57715 -10.53228 -10.53125
 Alpha  occ. eigenvalues --  -10.53041 -10.52951 -10.52828  -1.19845  -1.16668
 Alpha  occ. eigenvalues --   -1.13239  -0.91010  -0.89714  -0.87063  -0.84787
 Alpha  occ. eigenvalues --   -0.75122  -0.74115  -0.72654  -0.70767  -0.66245
 Alpha  occ. eigenvalues --   -0.63315  -0.60329  -0.58889  -0.56583  -0.55213
 Alpha  occ. eigenvalues --   -0.54718  -0.53233  -0.52222  -0.50596  -0.49973
 Alpha  occ. eigenvalues --   -0.48566  -0.47024  -0.45812  -0.45501  -0.44646
 Alpha  occ. eigenvalues --   -0.43632  -0.42868  -0.41186  -0.40383  -0.39607
 Alpha  occ. eigenvalues --   -0.38404  -0.37842  -0.36681  -0.34189  -0.32863
 Alpha  occ. eigenvalues --   -0.32362
 Alpha virt. eigenvalues --   -0.00066   0.00726   0.00796   0.01131   0.02115
 Alpha virt. eigenvalues --    0.02460   0.02598   0.03384   0.03709   0.04390
 Alpha virt. eigenvalues --    0.04591   0.04792   0.05567   0.05872   0.07198

 Mulliken charges:
               1
     1  C   -0.082093
     2  O   -0.291620
     3  C   -0.282383
     4  O   -0.352360
     5  C    0.029635
     6  C   -0.535683
     7  C   -0.379348
     8  O   -0.303315
     9  C   -0.180508
    10  C   -0.154801
    11  C   -0.152941
    12  C   -0.302237
    13  C   -0.429861
    14  H    0.135637
    15  H    0.204991
    16  H    0.180267
    17  H    0.182906
    18  H    0.271800
    19  H    0.193319
    20  H    0.180819
    21  H    0.176458
    22  H    0.163623
    23  H    0.188870
    24  H    0.175103
    25  H    0.206588
    26  H    0.133264
    27  H    0.253013
    28  H    0.222897
    29  H    0.213390
    30  H    0.173623
    31  H    0.160948
 Sum of Mulliken charges =  -0.00000

 Dipole moment (field-independent basis, Debye):
    X=             -0.3290    Y=              2.2407    Z=              0.3138  Tot=              2.2864
 Quadrupole moment (field-independent basis, Debye-Ang):
   XX=            -71.7813   YY=            -85.6232   ZZ=            -77.7132
   XY=              5.7354   XZ=              2.2520   YZ=              2.4509

  Exact polarizability: 177.193   1.723 156.083  -0.479   1.962 152.183
 Approx polarizability: 147.253   1.421 141.952  -0.928   1.059 142.872

 ******    1 imaginary frequencies (negative Signs) ******

                      1                      2                      3
                      A                      A                      A
 Frequencies --    -73.9488                58.0719               100.6368
 Red. masses --      3.4572                 4.3153                 3.6126
 Frc consts  --      0.0111                 0.0086                 0.0216
 IR Inten    --      0.6413                 1.2950                 2.2480

                      4                      5                      6
                      A                      A                      A
 Frequencies --    138.7860               203.8833               216.5538
 Red. masses --      2.9273                 3.9127                 2.7524
 Frc consts  --      0.0332                 0.0958                 0.0760
 IR Inten    --      0.2131                 3.8175                 5.0012

                      7                      8                      9
                      A                      A                      A
 Frequencies --    247.0163               265.3426               329.7801
 Red. masses --      2.0819                 2.6506                 2.8317
 Frc consts  --      0.0748                 0.1100                 0.1814
 IR Inten    --      3.7233                 2.5033                12.9245

                     10                     11                     12
                      A                      A                      A
 Frequencies --    367.1563               383.8082               435.4141
 Red. masses --      2.1330                 2.3113                 3.0822
 Frc consts  --      0.1694                 0.2006                 0.3443
 IR Inten    --      7.9087                15.1597                 6.5417

                     13                     14                     15
                      A                      A                      A
 Frequencies --    442.7238               460.0307               488.3601
 Red. masses --      3.4633                 3.2557                 2.5931
 Frc consts  --      0.4000                 0.4059                 0.3644
 IR Inten    --      4.9637                 0.4202                 3.2279

                     16                     17                     18
                      A                      A                      A
 Frequencies --    538.5547               576.2958               629.1025
 Red. masses --      2.0095                 2.2585                 4.2730
 Frc consts  --      0.3434                 0.4419                 0.9964
 IR Inten    --      0.7069                12.8405                 3.6492

                     19                     20                     21
                      A                      A                      A
 Frequencies --    712.2989               823.0668               834.0440
 Red. masses --      2.8585                 2.0078                 1.6216
 Frc consts  --      0.8545                 0.8014                 0.6646
 IR Inten    --      1.4389                 2.1068                 3.5733

                     22                     23                     24
                      A                      A                      A
 Frequencies --    840.4436               876.0941               888.9283
 Red. masses --      3.5711                 1.3962                 2.3459
 Frc consts  --      1.4862                 0.6314                 1.0922
 IR Inten    --     10.7251                10.5363                 4.8712

                     25                     26                     27
                      A                      A                      A
 Frequencies --    896.4183               910.6080               926.9796
 Red. masses --      2.5928                 2.3400                 1.8023
 Frc consts  --      1.2275                 1.1432                 0.9125
 IR Inten    --     39.7481                15.1678                26.7207

                     28                     29                     30
                      A                      A                      A
 Frequencies --    941.1536               980.0595               998.2066
 Red. masses --      2.1347                 1.6319                 2.0204
 Frc consts  --      1.1141                 0.9235                 1.1861
 IR Inten    --     31.8004                47.9774                35.4106

                     31                     32                     33
                      A                      A                      A
 Frequencies --   1011.3945              1041.5850              1053.2580
 Red. masses --      2.0385                 2.2728                 1.6999
 Frc consts  --      1.2286                 1.4528                 1.1111
 IR Inten    --     31.6818                67.9192                25.3764

                     34                     35                     36
                      A                      A                      A
 Frequencies --   1062.2598              1071.4884              1114.9580
 Red. masses --      1.5955                 2.1517                 4.1737
 Frc consts  --      1.0607                 1.4555                 3.0569
 IR Inten    --     72.5986                26.0345               312.7002

                     37                     38                     39
                      A                      A                      A
 Frequencies --   1140.0074              1150.9534              1166.9162
 Red. masses --      2.5238                 2.7499                 2.5059
 Frc consts  --      1.9325                 2.1463                 2.0104
 IR Inten    --     15.4196               147.1006                39.3019

                     40                     41                     42
                      A                      A                      A
 Frequencies --   1181.5161              1189.2357              1209.4267
 Red. masses --      3.5335                 2.8011                 1.4580
 Frc consts  --      2.9063                 2.3341                 1.2565
 IR Inten    --    103.1779               105.5219                12.3656

                     43                     44                     45
                      A                      A                      A
 Frequencies --   1213.2077              1233.0577              1248.6706
 Red. masses --      1.4415                 1.6257                 1.5012
 Frc consts  --      1.2501                 1.4563                 1.3791
 IR Inten    --     34.5603                51.8724                14.1513

                     46                     47                     48
                      A                      A                      A
 Frequencies --   1287.1436              1304.7261              1319.4635
 Red. masses --      1.2119                 1.1630                 1.1506
 Frc consts  --      1.1830                 1.1665                 1.1802
 IR Inten    --     15.1701                27.7481                 8.8982

                     49                     50                     51
                      A                      A                      A
 Frequencies --   1337.2731              1343.4825              1358.5397
 Red. masses --      1.3105                 1.2875                 1.2350
 Frc consts  --      1.3808                 1.3692                 1.3430
 IR Inten    --      9.5244                 2.2422                 5.6073

                     52                     53                     54
                      A                      A                      A
 Frequencies --   1362.7869              1383.8699              1384.7211
 Red. masses --      1.3274                 1.4497                 1.4263
 Frc consts  --      1.4525                 1.6358                 1.6114
 IR Inten    --      7.8792                 6.7734                 1.6558

                     55                     56                     57
                      A                      A                      A
 Frequencies --   1390.9137              1394.8462              1400.6611
 Red. masses --      1.6693                 1.3646                 1.3871
 Frc consts  --      1.9028                 1.5643                 1.6033
 IR Inten    --     18.4893                24.0300                 1.1107

                     58                     59                     60
                      A                      A                      A
 Frequencies --   1411.7652              1421.1836              1429.9673
 Red. masses --      1.3706                 1.4012                 1.3382
 Frc consts  --      1.6095                 1.6675                 1.6122
 IR Inten    --      8.5871                 7.6613                15.8396

                     61                     62                     63
                      A                      A                      A
 Frequencies --   1433.2435              1474.6294              1480.7274
 Red. masses --      1.3875                 1.1042                 1.0928
 Frc consts  --      1.6793                 1.4146                 1.4117
 IR Inten    --     16.1416                 5.6998                 8.0235

                     64                     65                     66
                      A                      A                      A
 Frequencies --   1482.2118              1495.3028              1495.8164
 Red. masses --      1.0879                 1.1098                 1.1053
 Frc consts  --      1.4082                 1.4621                 1.4571
 IR Inten    --      6.8592                11.9874                10.9997

                     67                     68                     69
                      A                      A                      A
 Frequencies --   1504.3266              1507.5009              1519.4921
 Red. masses --      1.0839                 1.0946                 1.0972
 Frc consts  --      1.4452                 1.4657                 1.4925
 IR Inten    --      2.1375                 4.1610                 7.6212

                     70                     71                     72
                      A                      A                      A
 Frequencies --   3021.4544              3026.6757              3046.1062
 Red. masses --      1.0705                 1.0709                 1.0778
 Frc consts  --      5.7580                 5.7801                 5.8920
 IR Inten    --     63.3097                33.3839                28.6953

                     73                     74                     75
                      A                      A                      A
 Frequencies --   3053.2849              3057.5391              3062.8016
 Red. masses --      1.0690                 1.0709                 1.0627
 Frc consts  --      5.8718                 5.8987                 5.8736
 IR Inten    --     56.6336                73.0519                41.3587

                     76                     77                     78
                      A                      A                      A
 Frequencies --   3071.0949              3074.4879              3079.2037
 Red. masses --      1.0621                 1.0630                 1.0625
 Frc consts  --      5.9021                 5.9201                 5.9358
 IR Inten    --     39.8715                29.5503                18.0610

                     79                     80                     81
                      A                      A                      A
 Frequencies --   3106.5031              3113.4681              3114.3120
 Red. masses --      1.0855                 1.0979                 1.0979
 Frc consts  --      6.1721                 6.2704                 6.2739
 IR Inten    --     85.6600                23.8659                44.7629

                     82                     83                     84
                      A                      A                      A
 Frequencies --   3120.2210              3120.8256              3132.2100
 Red. masses --      1.1023                 1.1026                 1.1031
 Frc consts  --      6.3230                 6.3269                 6.3762
 IR Inten    --     64.7633                54.1409                41.0207

                     85                     86                     87
                      A                      A                      A
 Frequencies --   3134.1367              3135.4960              3166.2894
 Red. masses --      1.0948                 1.0982                 1.0944
 Frc consts  --      6.3363                 6.3615                 6.4643
 IR Inten    --     47.7577                44.5889                15.2248

 - Thermochemistry -
 -------------------
 Temperature   298.150 Kelvin.  Pressure   1.00000 Atm.
 Atom     1 has atomic number  6 and mass  12.00000

 Molecular mass:   186.12559 amu.
 Principal axes and moments of inertia in atomic units:
                           1         2         3
     Eigenvalues --   903.454424296.870794700.78563
           X            0.99998   0.00618   0.00334
           Y           -0.00625   0.99978   0.01993
           Z           -0.00322  -0.01995   0.99980
 This molecule is an asymmetric top.
 Rotational symmetry number  1.
 Warning -- assumption of classical behavior for rotation
           may cause significant error
 Rotational temperatures (Kelvin)      0.09587     0.02016     0.01843
 Rotational constants (GHZ):           1.99760     0.42001     0.38392
    1 imaginary frequencies ignored.
 Zero-point vibrational energy     736651.2 (Joules/Mol)
                                  176.06386 (Kcal/Mol)
 Warning -- explicit consideration of  16 degrees of freedom as
           vibrations may cause significant error
 Vibrational temperatures:     83.55   144.79   199.68   293.34   311.57
          (Kelvin)            355.40   381.77   474.48   528.26   552.21
                              626.46   636.98   661.88   702.64   774.86
                              829.16   905.14  1024.84  1184.21  1200.00
                             1209.21  1260.50  1278.97  1289.75  1310.16
                             1333.72  1354.11  1410.09  1436.20  1455.17
                             1498.61  1515.40  1528.35  1541.63  1604.18
                             1640.22  1655.97  1678.93  1699.94  1711.04
                             1740.10  1745.54  1774.10  1796.56  1851.91
                             1877.21  1898.41  1924.04  1932.97  1954.64
                             1960.75  1991.08  1992.30  2001.21  2006.87
                             2015.24  2031.22  2044.77  2057.40  2062.12
                             2121.66  2130.44  2132.57  2151.41  2152.15
                             2164.39  2168.96  2186.21  4347.20  4354.71
                             4382.67  4393.00  4399.12  4406.69  4418.62
                             4423.50  4430.29  4469.57  4479.59  4480.80
                             4489.30  4490.17  4506.55  4509.32  4511.28
                             4555.58

 Zero-point correction=                           0.280576 (Hartree/Particle)
 Thermal correction to Energy=                    0.291490
 Thermal correction to Enthalpy=                  0.292434
 Thermal correction to Gibbs Free Energy=         0.243895
 Sum of electronic and zero-point Energies=           -617.216641
 Sum of electronic and thermal Energies=              -617.205726
 Sum of electronic and thermal Enthalpies=            -617.204782
 Sum of electronic and thermal Free Energies=         -617.253322

                     E (Thermal)             CV                S
                      KCal/Mol        Cal/Mol-Kelvin    Cal/Mol-Kelvin
 Total                  182.913             44.842            102.160
 Electronic               0.000              0.000              0.000
 Translational            0.889              2.981             41.570
 Rotational               0.889              2.981             31.279
 Vibrational            181.135             38.880             29.311
 Vibration     1          0.596              1.974              4.522
 Vibration     2          0.604              1.949              3.442
 Vibration     3          0.614              1.915              2.821
 Vibration     4          0.640              1.834              2.098
 Vibration     5          0.645              1.816              1.988
 Vibration     6          0.661              1.768              1.752
 Vibration     7          0.671              1.737              1.626
 Vibration     8          0.713              1.616              1.261
 Vibration     9          0.740              1.540              1.092
 Vibration    10          0.753              1.505              1.024
 Vibration    11          0.796              1.393              0.841
 Vibration    12          0.802              1.377              0.818
 Vibration    13          0.818              1.339              0.766
 Vibration    14          0.844              1.276              0.688
 Vibration    15          0.894              1.165              0.568
 Vibration    16          0.933              1.083              0.492

 Optimization completed.
    -- Stationary point found.
 Normal termination of Gaussian 16 at Sun Nov  4 22:49:06 2018.
