 Gaussian 16, Revision A.03,
 Gaussian 16:  ES64L-G16RevA.03 25-Dec-2016

 ----------------------------------------------------------------------
 #M062X/6-311++G(2d,2p) opt=ModRedundant freq=noraman SCRF=(Solvent=Wat
 er)
 ----------------------------------------------------------------------

 ---------------------------
 L_a1-e4_D_PSI.inp_extract_4
 ---------------------------
 Symbolic Z-matrix:
 Charge =  0 Multiplicity = 1

 SCF Done:  E(RM062X) =  -617.499451340     A.U. after   12 cycles
 SCF Done:  E(RM062X) =  -617.501341595     A.U. after   11 cycles
 SCF Done:  E(RM062X) =  -617.501498789     A.U. after   10 cycles
 SCF Done:  E(RM062X) =  -617.501593792     A.U. after    9 cycles
 SCF Done:  E(RM062X) =  -617.501595986     A.U. after    8 cycles
 SCF Done:  E(RM062X) =  -617.501597319     A.U. after    8 cycles
 Optimization completed.
    -- Stationary point found.
 Normal termination of Gaussian 16 at Sun Nov  4 21:49:57 2018.

 ----------------------------------------------------------------------
 #N Geom=AllCheck Guess=TCheck SCRF=Check GenChk RM062X/6-311++G(2d,2p)
  Freq
 ----------------------------------------------------------------------

 Structure from the checkpoint file:  "L_a1-e4_D_PSI.inp_extract_4.chk"
 ---------------------------
 L_a1-e4_D_PSI.inp_extract_4
 ---------------------------
 Charge =  0 Multiplicity = 1

                         Standard orientation:
 ---------------------------------------------------------------------
 Center     Atomic      Atomic             Coordinates (Angstroms)
 Number     Number       Type             X           Y           Z
 ---------------------------------------------------------------------
      1          6           0       -2.217882   -0.955002   -1.111432
      2          8           0       -1.489232   -1.269295    0.076999
      3          6           0       -3.221017    1.028938    0.013466
      4          8           0        2.796575   -1.292505    0.168843
      5          6           0       -1.159130   -0.136164    0.852035
      6          6           0       -2.391217    0.663648    1.242641
      7          6           0        3.311963    0.885420   -0.760910
      8          8           0       -0.299712    0.728621    0.152984
      9          6           0        1.925201    1.371729   -0.346075
     10          6           0        3.754055   -0.241819    0.156138
     11          6           0        0.953431    0.203020   -0.277879
     12          6           0        1.537248   -0.863828    0.652802
     13          6           0       -3.516651   -0.234150   -0.793125
     14          1           0       -1.595072   -0.338107   -1.765854
     15          1           0       -2.396721   -1.907783   -1.604471
     16          1           0       -2.665109    1.734718   -0.606509
     17          1           0       -4.144659    1.520106    0.317503
     18          1           0       -0.666379   -0.539565    1.736811
     19          1           0       -2.983099    0.042867    1.917580
     20          1           0       -2.075095    1.548652    1.793337
     21          1           0        4.034603    1.700258   -0.717087
     22          1           0        3.288382    0.518611   -1.789068
     23          1           0        1.969959    1.827690    0.646525
     24          1           0        1.548248    2.124915   -1.038336
     25          1           0        4.689723   -0.686297   -0.175921
     26          1           0        3.889820    0.133782    1.177629
     27          1           0        0.832397   -0.248703   -1.268635
     28          1           0        0.906138   -1.747999    0.693743
     29          1           0        1.644822   -0.451123    1.664605
     30          1           0       -4.033684    0.003364   -1.723275
     31          1           0       -4.161333   -0.900706   -0.215143
 ---------------------------------------------------------------------

 SCF Done:  E(RM062X) =  -617.501597319     A.U. after    1 cycles

 The electronic state is 1-A.
 Alpha  occ. eigenvalues --  -19.63323 -19.63268 -19.63046 -10.63587 -10.58897
 Alpha  occ. eigenvalues --  -10.58209 -10.58067 -10.57837 -10.53265 -10.53224
 Alpha  occ. eigenvalues --  -10.53113 -10.52994 -10.52883  -1.20144  -1.16733
 Alpha  occ. eigenvalues --   -1.13365  -0.91138  -0.89812  -0.87094  -0.84843
 Alpha  occ. eigenvalues --   -0.75288  -0.74134  -0.72670  -0.70705  -0.65913
 Alpha  occ. eigenvalues --   -0.63776  -0.60326  -0.59082  -0.56832  -0.55543
 Alpha  occ. eigenvalues --   -0.54479  -0.53144  -0.52600  -0.50810  -0.49846
 Alpha  occ. eigenvalues --   -0.48338  -0.47128  -0.45791  -0.45719  -0.44791
 Alpha  occ. eigenvalues --   -0.43953  -0.43034  -0.40785  -0.40362  -0.39544
 Alpha  occ. eigenvalues --   -0.38451  -0.37789  -0.36573  -0.35019  -0.33254
 Alpha  occ. eigenvalues --   -0.32267
 Alpha virt. eigenvalues --   -0.00072   0.00740   0.00822   0.01092   0.02147
 Alpha virt. eigenvalues --    0.02444   0.02634   0.03471   0.03571   0.04422
 Alpha virt. eigenvalues --    0.04603   0.04737   0.05718   0.05804   0.07079

 Mulliken charges:
               1
     1  C   -0.102271
     2  O   -0.266778
     3  C   -0.281351
     4  O   -0.342573
     5  C    0.023926
     6  C   -0.546803
     7  C   -0.379213
     8  O   -0.303094
     9  C   -0.334068
    10  C   -0.131325
    11  C   -0.011154
    12  C   -0.330073
    13  C   -0.406903
    14  H    0.133801
    15  H    0.199107
    16  H    0.174278
    17  H    0.184364
    18  H    0.263952
    19  H    0.193599
    20  H    0.185905
    21  H    0.179443
    22  H    0.162989
    23  H    0.204927
    24  H    0.169905
    25  H    0.207104
    26  H    0.133492
    27  H    0.237176
    28  H    0.232343
    29  H    0.212847
    30  H    0.172162
    31  H    0.164285
 Sum of Mulliken charges =  -0.00000

 Dipole moment (field-independent basis, Debye):
    X=             -0.5079    Y=              2.2401    Z=              0.0247  Tot=              2.2970
 Quadrupole moment (field-independent basis, Debye-Ang):
   XX=            -71.4976   YY=            -86.9595   ZZ=            -76.0099
   XY=              5.4729   XZ=              0.9987   YZ=              0.7221

  Exact polarizability: 176.111   1.055 153.775  -1.230   1.594 155.347
 Approx polarizability: 146.541   1.268 142.251  -1.053   1.050 143.245

                      1                      2                      3
                      A                      A                      A
 Frequencies --     41.6596                66.1279               100.7437
 Red. masses --      3.4257                 4.2354                 3.5722
 Frc consts  --      0.0035                 0.0109                 0.0214
 IR Inten    --      1.7682                 0.3955                 1.4792

                      4                      5                      6
                      A                      A                      A
 Frequencies --    151.5985               197.8765               227.5111
 Red. masses --      3.1883                 3.5650                 2.8229
 Frc consts  --      0.0432                 0.0822                 0.0861
 IR Inten    --      0.0786                 4.3572                 9.3023

                      7                      8                      9
                      A                      A                      A
 Frequencies --    257.0728               273.1539               347.1478
 Red. masses --      2.0659                 2.5867                 3.0386
 Frc consts  --      0.0804                 0.1137                 0.2158
 IR Inten    --      2.3797                 2.5777                15.4226

                     10                     11                     12
                      A                      A                      A
 Frequencies --    364.5746               379.1437               442.3351
 Red. masses --      2.0786                 2.3524                 3.6383
 Frc consts  --      0.1628                 0.1992                 0.4194
 IR Inten    --      1.2355                21.7935                 6.5764

                     13                     14                     15
                      A                      A                      A
 Frequencies --    443.6173               463.5952               489.9730
 Red. masses --      3.2141                 3.2390                 2.3671
 Frc consts  --      0.3727                 0.4102                 0.3348
 IR Inten    --      3.3849                 0.7009                 2.3124

                     16                     17                     18
                      A                      A                      A
 Frequencies --    539.3751               577.8558               629.8055
 Red. masses --      2.0427                 2.2684                 3.5880
 Frc consts  --      0.3501                 0.4463                 0.8385
 IR Inten    --      1.2169                 8.4980                 4.1674

                     19                     20                     21
                      A                      A                      A
 Frequencies --    720.9000               829.1176               833.5030
 Red. masses --      3.0560                 1.7984                 1.8080
 Frc consts  --      0.9357                 0.7284                 0.7401
 IR Inten    --      2.1981                 2.1050                 1.1780

                     22                     23                     24
                      A                      A                      A
 Frequencies --    840.1524               876.8338               891.2120
 Red. masses --      3.4604                 1.3887                 2.3498
 Frc consts  --      1.4391                 0.6291                 1.0996
 IR Inten    --      9.2516                10.1209                 7.4880

                     25                     26                     27
                      A                      A                      A
 Frequencies --    899.4468               915.9305               928.8548
 Red. masses --      2.5418                 2.3795                 1.7462
 Frc consts  --      1.2115                 1.1762                 0.8877
 IR Inten    --     35.9338                 9.9933                20.8640

                     28                     29                     30
                      A                      A                      A
 Frequencies --    946.0857               989.0434               996.2523
 Red. masses --      2.1295                 1.5082                 2.2771
 Frc consts  --      1.1230                 0.8692                 1.3316
 IR Inten    --     20.4205                46.4592                44.9105

                     31                     32                     33
                      A                      A                      A
 Frequencies --   1015.5911              1043.3778              1056.1309
 Red. masses --      2.0470                 2.3142                 1.7281
 Frc consts  --      1.2440                 1.4843                 1.1357
 IR Inten    --     38.7860                75.8865                25.1370

                     34                     35                     36
                      A                      A                      A
 Frequencies --   1063.6799              1073.2949              1114.2753
 Red. masses --      1.6059                 2.1397                 4.1070
 Frc consts  --      1.0705                 1.4523                 3.0044
 IR Inten    --     60.8820                32.4044               254.9455

                     37                     38                     39
                      A                      A                      A
 Frequencies --   1138.9528              1152.8798              1171.4068
 Red. masses --      2.3866                 2.9673                 2.4625
 Frc consts  --      1.8240                 2.3237                 1.9908
 IR Inten    --     20.1524               157.3235                28.1122

                     40                     41                     42
                      A                      A                      A
 Frequencies --   1184.1579              1187.7844              1211.6802
 Red. masses --      3.0921                 2.9695                 1.3888
 Frc consts  --      2.5546                 2.4684                 1.2014
 IR Inten    --     90.6036               140.1872                17.3698

                     43                     44                     45
                      A                      A                      A
 Frequencies --   1219.8483              1234.5781              1251.8520
 Red. masses --      1.5508                 1.6188                 1.5114
 Frc consts  --      1.3597                 1.4538                 1.3955
 IR Inten    --     14.5931                57.6346                17.0511

                     46                     47                     48
                      A                      A                      A
 Frequencies --   1288.3597              1305.7903              1320.5274
 Red. masses --      1.2130                 1.1565                 1.1490
 Frc consts  --      1.1863                 1.1618                 1.1805
 IR Inten    --     19.2300                17.1960                 7.8272

                     49                     50                     51
                      A                      A                      A
 Frequencies --   1333.8022              1338.2550              1358.1932
 Red. masses --      1.3053                 1.2056                 1.2747
 Frc consts  --      1.3681                 1.2721                 1.3854
 IR Inten    --      8.1955                 0.6083                 7.5655

                     52                     53                     54
                      A                      A                      A
 Frequencies --   1364.8989              1383.8912              1384.2769
 Red. masses --      1.3309                 1.4477                 1.4396
 Frc consts  --      1.4608                 1.6336                 1.6253
 IR Inten    --      3.4197                 1.8179                 9.5673

                     55                     56                     57
                      A                      A                      A
 Frequencies --   1390.7697              1396.5147              1402.9773
 Red. masses --      1.6494                 1.2782                 1.5257
 Frc consts  --      1.8797                 1.4687                 1.7694
 IR Inten    --     16.0152                14.0150                 6.2696

                     58                     59                     60
                      A                      A                      A
 Frequencies --   1412.0895              1423.3610              1431.7195
 Red. masses --      1.3853                 1.3853                 1.4186
 Frc consts  --      1.6275                 1.6536                 1.7133
 IR Inten    --      6.2111                13.5523                 4.5072

                     61                     62                     63
                      A                      A                      A
 Frequencies --   1435.2593              1474.8613              1481.2589
 Red. masses --      1.3880                 1.1054                 1.0932
 Frc consts  --      1.6846                 1.4167                 1.4132
 IR Inten    --     21.1563                 5.3087                 9.7775

                     64                     65                     66
                      A                      A                      A
 Frequencies --   1481.3719              1495.1723              1496.5375
 Red. masses --      1.0865                 1.1097                 1.1123
 Frc consts  --      1.4047                 1.4616                 1.4678
 IR Inten    --      5.6278                13.7069                 9.4069

                     67                     68                     69
                      A                      A                      A
 Frequencies --   1506.2263              1507.9316              1520.5329
 Red. masses --      1.0837                 1.0935                 1.0963
 Frc consts  --      1.4486                 1.4650                 1.4934
 IR Inten    --      2.3194                 3.3548                 6.2941

                     70                     71                     72
                      A                      A                      A
 Frequencies --   3010.3428              3022.9832              3036.3715
 Red. masses --      1.0703                 1.0703                 1.0826
 Frc consts  --      5.7148                 5.7630                 5.8804
 IR Inten    --     33.4021                80.6038                70.0951

                     73                     74                     75
                      A                      A                      A
 Frequencies --   3052.6770              3061.6593              3063.7633
 Red. masses --      1.0691                 1.0640                 1.0628
 Frc consts  --      5.8700                 5.8763                 5.8778
 IR Inten    --     42.5274                41.9156                41.0590

                     76                     77                     78
                      A                      A                      A
 Frequencies --   3072.2579              3073.8804              3078.7266
 Red. masses --      1.0620                 1.0628                 1.0629
 Frc consts  --      5.9061                 5.9167                 5.9359
 IR Inten    --     37.3815                30.4033                16.2245

                     79                     80                     81
                      A                      A                      A
 Frequencies --   3101.7160              3113.8195              3113.9563
 Red. masses --      1.0855                 1.0985                 1.0994
 Frc consts  --      6.1528                 6.2755                 6.2809
 IR Inten    --     78.4592                 9.0606                64.1858

                     82                     83                     84
                      A                      A                      A
 Frequencies --   3119.9666              3122.1695              3130.9746
 Red. masses --      1.1025                 1.1025                 1.1033
 Frc consts  --      6.3230                 6.3323                 6.3725
 IR Inten    --     62.7995                52.8992                39.4987

                     85                     86                     87
                      A                      A                      A
 Frequencies --   3134.3598              3136.7525              3148.1490
 Red. masses --      1.0950                 1.0980                 1.0941
 Frc consts  --      6.3382                 6.3652                 6.3888
 IR Inten    --     48.3189                44.6070                20.4986

 - Thermochemistry -
 -------------------
 Temperature   298.150 Kelvin.  Pressure   1.00000 Atm.
 Atom     1 has atomic number  6 and mass  12.00000

 Molecular mass:   186.12559 amu.
 Principal axes and moments of inertia in atomic units:
                           1         2         3
     Eigenvalues --   915.956114338.694354568.55670
           X            0.99999   0.00528   0.00119
           Y           -0.00529   0.99994   0.00987
           Z           -0.00114  -0.00987   0.99995
 This molecule is an asymmetric top.
 Rotational symmetry number  1.
 Warning -- assumption of classical behavior for rotation
           may cause significant error
 Rotational temperatures (Kelvin)      0.09456     0.01996     0.01896
 Rotational constants (GHZ):           1.97034     0.41596     0.39504
 Zero-point vibrational energy     737552.2 (Joules/Mol)
                                  176.27920 (Kcal/Mol)
 Warning -- explicit consideration of  17 degrees of freedom as
           vibrations may cause significant error
 Vibrational temperatures:     59.94    95.14   144.95   218.12   284.70
          (Kelvin)            327.34   369.87   393.01   499.47   524.54
                              545.50   636.42   638.27   667.01   704.96
                              776.04   831.41   906.15  1037.21  1192.92
                             1199.22  1208.79  1261.57  1282.26  1294.10
                             1317.82  1336.41  1361.21  1423.01  1433.38
                             1461.21  1501.19  1519.54  1530.40  1544.23
                             1603.19  1638.70  1658.74  1685.39  1703.74
                             1708.96  1743.34  1755.09  1776.28  1801.14
                             1853.66  1878.74  1899.94  1919.04  1925.45
                             1954.14  1963.79  1991.11  1991.67  2001.01
                             2009.27  2018.57  2031.68  2047.90  2059.93
                             2065.02  2122.00  2131.20  2131.36  2151.22
                             2153.18  2167.12  2169.58  2187.71  4331.21
                             4349.40  4368.66  4392.12  4405.04  4408.07
                             4420.29  4422.63  4429.60  4462.68  4480.09
                             4480.29  4488.94  4492.11  4504.77  4509.64
                             4513.09  4529.48

 Zero-point correction=                           0.280919 (Hartree/Particle)
 Thermal correction to Energy=                    0.292578
 Thermal correction to Enthalpy=                  0.293522
 Thermal correction to Gibbs Free Energy=         0.242863
 Sum of electronic and zero-point Energies=           -617.220679
 Sum of electronic and thermal Energies=              -617.209019
 Sum of electronic and thermal Enthalpies=            -617.208075
 Sum of electronic and thermal Free Energies=         -617.258734

                     E (Thermal)             CV                S
                      KCal/Mol        Cal/Mol-Kelvin    Cal/Mol-Kelvin
 Total                  183.595             46.627            106.621
 Electronic               0.000              0.000              0.000
 Translational            0.889              2.981             41.570
 Rotational               0.889              2.981             31.274
 Vibrational            181.818             40.666             33.777
 Vibration     1          0.594              1.981              5.179
 Vibration     2          0.598              1.970              4.265
 Vibration     3          0.604              1.949              3.440
 Vibration     4          0.619              1.901              2.652
 Vibration     5          0.637              1.843              2.153
 Vibration     6          0.651              1.799              1.898
 Vibration     7          0.667              1.751              1.682
 Vibration     8          0.676              1.723              1.576
 Vibration     9          0.725              1.581              1.179
 Vibration    10          0.738              1.545              1.103
 Vibration    11          0.749              1.515              1.043
 Vibration    12          0.802              1.378              0.819
 Vibration    13          0.803              1.375              0.815
 Vibration    14          0.821              1.331              0.756
 Vibration    15          0.846              1.272              0.684
 Vibration    16          0.894              1.163              0.567
 Vibration    17          0.934              1.079              0.489

 Optimization completed.
    -- Stationary point found.
 Normal termination of Gaussian 16 at Sun Nov  4 22:53:17 2018.
