 Gaussian 16, Revision A.03,
 Gaussian 16:  ES64L-G16RevA.03 25-Dec-2016

 ----------------------------------------------------------------------
 #M062X/6-311++G(2d,2p) opt=ModRedundant freq=noraman SCRF=(Solvent=Wat
 er)
 ----------------------------------------------------------------------

 ---------------------------
 L_a1-e4_D_PSI.inp_extract_1
 ---------------------------
 Symbolic Z-matrix:
 Charge =  0 Multiplicity = 1

 SCF Done:  E(RM062X) =  -617.502415334     A.U. after   12 cycles
 SCF Done:  E(RM062X) =  -617.504092386     A.U. after   11 cycles
 SCF Done:  E(RM062X) =  -617.504273392     A.U. after   10 cycles
 SCF Done:  E(RM062X) =  -617.504340126     A.U. after   10 cycles
 SCF Done:  E(RM062X) =  -617.504354307     A.U. after    8 cycles
 SCF Done:  E(RM062X) =  -617.504356705     A.U. after    8 cycles
 SCF Done:  E(RM062X) =  -617.504356707     A.U. after    7 cycles
 SCF Done:  E(RM062X) =  -617.504356625     A.U. after    6 cycles
 Optimization completed.
    -- Stationary point found.
 Normal termination of Gaussian 16 at Sun Nov  4 22:02:32 2018.

 ----------------------------------------------------------------------
 #N Geom=AllCheck Guess=TCheck SCRF=Check GenChk RM062X/6-311++G(2d,2p)
  Freq
 ----------------------------------------------------------------------

 Structure from the checkpoint file:  "L_a1-e4_D_PSI.inp_extract_1.chk"
 ---------------------------
 L_a1-e4_D_PSI.inp_extract_1
 ---------------------------
 Charge =  0 Multiplicity = 1

                         Standard orientation:
 ---------------------------------------------------------------------
 Center     Atomic      Atomic             Coordinates (Angstroms)
 Number     Number       Type             X           Y           Z
 ---------------------------------------------------------------------
      1          6           0       -2.227239    1.094654   -0.982205
      2          8           0       -1.595952   -0.139098   -1.330554
      3          6           0       -3.155759    0.039696    1.078462
      4          8           0        3.091591   -0.899788   -0.701478
      5          6           0       -1.231885   -0.920033   -0.214279
      6          6           0       -2.427742   -1.239121    0.667204
      7          6           0        3.058820    1.346728    0.220406
      8          8           0       -0.282759   -0.257754    0.589244
      9          6           0        1.660227    1.095943    0.782591
     10          6           0        3.811937    0.032321    0.094894
     11          6           0        0.952669    0.039273   -0.047592
     12          6           0        1.830760   -1.208623   -0.136855
     13          6           0       -3.487919    0.859857   -0.167073
     14          1           0       -1.522906    1.716835   -0.422132
     15          1           0       -2.445667    1.587344   -1.926873
     16          1           0       -2.517265    0.626750    1.741179
     17          1           0       -4.060947   -0.206243    1.632541
     18          1           0       -0.805358   -1.827751   -0.643764
     19          1           0       -3.098690   -1.879473    0.091998
     20          1           0       -2.085837   -1.804209    1.533396
     21          1           0        3.616459    2.027183    0.863947
     22          1           0        2.987055    1.808994   -0.766311
     23          1           0        1.733165    0.729636    1.810578
     24          1           0        1.068059    2.011126    0.798295
     25          1           0        4.774817    0.169319   -0.392382
     26          1           0        3.982676   -0.400210    1.088333
     27          1           0        0.768669    0.421315   -1.055700
     28          1           0        1.385393   -1.970484   -0.773118
     29          1           0        1.955788   -1.622748    0.871800
     30          1           0       -3.929157    1.820682    0.099483
     31          1           0       -4.212508    0.320885   -0.782292
 ---------------------------------------------------------------------

 SCF Done:  E(RM062X) =  -617.504356625     A.U. after    1 cycles

 The electronic state is 1-A.
 Alpha  occ. eigenvalues --  -19.63427 -19.63207 -19.63053 -10.63563 -10.58608
 Alpha  occ. eigenvalues --  -10.58073 -10.58071 -10.57822 -10.53302 -10.53258
 Alpha  occ. eigenvalues --  -10.53105 -10.53002 -10.52893  -1.20223  -1.16678
 Alpha  occ. eigenvalues --   -1.13482  -0.91162  -0.89796  -0.87145  -0.84597
 Alpha  occ. eigenvalues --   -0.74902  -0.74060  -0.72874  -0.70753  -0.65697
 Alpha  occ. eigenvalues --   -0.64149  -0.60022  -0.58894  -0.57364  -0.56153
 Alpha  occ. eigenvalues --   -0.53889  -0.53298  -0.52228  -0.51097  -0.49636
 Alpha  occ. eigenvalues --   -0.47999  -0.46768  -0.46096  -0.45566  -0.45389
 Alpha  occ. eigenvalues --   -0.44118  -0.42841  -0.40634  -0.40184  -0.39131
 Alpha  occ. eigenvalues --   -0.38394  -0.38218  -0.36260  -0.35919  -0.33391
 Alpha  occ. eigenvalues --   -0.31923
 Alpha virt. eigenvalues --   -0.00058   0.00760   0.00926   0.01015   0.02169
 Alpha virt. eigenvalues --    0.02471   0.02615   0.03338   0.03685   0.04375
 Alpha virt. eigenvalues --    0.04617   0.04774   0.05435   0.05989   0.06981

 Mulliken charges:
               1
     1  C   -0.151762
     2  O   -0.285147
     3  C   -0.303505
     4  O   -0.317828
     5  C   -0.063934
     6  C   -0.361005
     7  C   -0.352378
     8  O   -0.244027
     9  C   -0.130193
    10  C   -0.168767
    11  C   -0.368660
    12  C   -0.281163
    13  C   -0.362209
    14  H    0.122978
    15  H    0.204944
    16  H    0.179807
    17  H    0.179716
    18  H    0.245361
    19  H    0.190331
    20  H    0.179906
    21  H    0.189427
    22  H    0.162690
    23  H    0.211467
    24  H    0.150577
    25  H    0.207213
    26  H    0.136960
    27  H    0.291367
    28  H    0.212323
    29  H    0.188451
    30  H    0.170816
    31  H    0.166243
 Sum of Mulliken charges =  -0.00000

 Dipole moment (field-independent basis, Debye):
    X=             -0.8484    Y=              1.4179    Z=              1.8783  Tot=              2.5016
 Quadrupole moment (field-independent basis, Debye-Ang):
   XX=            -74.7912   YY=            -76.4938   ZZ=            -85.1342
   XY=              4.0922   XZ=              3.5973   YZ=             -2.3749

  Exact polarizability: 174.789   1.729 159.108  -0.108  -1.720 151.236
 Approx polarizability: 146.097   1.439 142.953   0.663  -0.026 142.843

                      1                      2                      3
                      A                      A                      A
 Frequencies --     22.9642                57.5175                86.3080
 Red. masses --      3.7160                 3.6604                 3.4280
 Frc consts  --      0.0012                 0.0071                 0.0150
 IR Inten    --      0.1259                 0.9419                 0.4037

                      4                      5                      6
                      A                      A                      A
 Frequencies --    157.4626               169.8217               235.6428
 Red. masses --      4.2683                 2.5996                 2.5127
 Frc consts  --      0.0624                 0.0442                 0.0822
 IR Inten    --      4.5033                 0.7496                 9.6294

                      7                      8                      9
                      A                      A                      A
 Frequencies --    254.5256               287.1384               345.0193
 Red. masses --      2.3266                 2.3332                 2.5994
 Frc consts  --      0.0888                 0.1133                 0.1823
 IR Inten    --      1.8223                 4.4810                 8.6481

                     10                     11                     12
                      A                      A                      A
 Frequencies --    375.7562               380.0451               436.9678
 Red. masses --      2.4457                 2.6259                 3.3563
 Frc consts  --      0.2035                 0.2235                 0.3776
 IR Inten    --     22.7003                11.4936                 9.5101

                     13                     14                     15
                      A                      A                      A
 Frequencies --    451.1024               468.7827               478.1759
 Red. masses --      3.6488                 3.3453                 2.2441
 Frc consts  --      0.4375                 0.4331                 0.3023
 IR Inten    --      2.7081                 0.5154                 0.8832

                     16                     17                     18
                      A                      A                      A
 Frequencies --    533.2649               578.9292               609.5681
 Red. masses --      2.2325                 2.4665                 2.6731
 Frc consts  --      0.3741                 0.4871                 0.5852
 IR Inten    --      2.1529                 8.4569                 5.6561

                     19                     20                     21
                      A                      A                      A
 Frequencies --    725.5127               833.1672               833.5796
 Red. masses --      3.0465                 1.6571                 2.0191
 Frc consts  --      0.9448                 0.6778                 0.8266
 IR Inten    --      1.6894                 2.9284                 0.5968

                     22                     23                     24
                      A                      A                      A
 Frequencies --    841.4205               880.6847               891.4509
 Red. masses --      3.2538                 1.4021                 2.2982
 Frc consts  --      1.3573                 0.6407                 1.0760
 IR Inten    --      9.3667                 9.7644                 8.7928

                     25                     26                     27
                      A                      A                      A
 Frequencies --    899.6929               909.0548               928.9820
 Red. masses --      2.4025                 2.4622                 1.7069
 Frc consts  --      1.1458                 1.1988                 0.8679
 IR Inten    --     32.8276                 5.7733                23.1156

                     28                     29                     30
                      A                      A                      A
 Frequencies --    944.3642               988.8833               995.4156
 Red. masses --      2.1340                 2.1665                 1.4791
 Frc consts  --      1.1213                 1.2482                 0.8635
 IR Inten    --     33.0716                66.3548                 9.3170

                     31                     32                     33
                      A                      A                      A
 Frequencies --   1023.7933              1043.0913              1054.9728
 Red. masses --      2.2309                 2.3334                 1.7195
 Frc consts  --      1.3777                 1.4959                 1.1275
 IR Inten    --     37.6659                89.4011                34.9997

                     34                     35                     36
                      A                      A                      A
 Frequencies --   1064.8450              1069.9950              1114.5657
 Red. masses --      1.5088                 2.3032                 4.4482
 Frc consts  --      1.0080                 1.5536                 3.2557
 IR Inten    --     61.8565                14.1752               280.8578

                     37                     38                     39
                      A                      A                      A
 Frequencies --   1146.6570              1151.9443              1165.5163
 Red. masses --      2.6010                 2.8838                 2.4242
 Frc consts  --      2.0149                 2.2547                 1.9402
 IR Inten    --     57.2123               101.9641                22.3613

                     40                     41                     42
                      A                      A                      A
 Frequencies --   1172.1034              1191.4024              1208.6631
 Red. masses --      3.7087                 2.1629                 1.4210
 Frc consts  --      3.0019                 1.8088                 1.2231
 IR Inten    --    166.6760                30.9164                 8.7378

                     43                     44                     45
                      A                      A                      A
 Frequencies --   1222.3618              1234.0261              1252.6089
 Red. masses --      1.6659                 1.6267                 1.4951
 Frc consts  --      1.4666                 1.4595                 1.3822
 IR Inten    --     31.5218                64.0517                21.3048

                     46                     47                     48
                      A                      A                      A
 Frequencies --   1288.4287              1304.4320              1318.5111
 Red. masses --      1.2222                 1.1745                 1.1482
 Frc consts  --      1.1954                 1.1775                 1.1761
 IR Inten    --     18.7129                15.3928                 7.4866

                     49                     50                     51
                      A                      A                      A
 Frequencies --   1329.4959              1339.5292              1350.4177
 Red. masses --      1.2733                 1.2209                 1.2852
 Frc consts  --      1.3260                 1.2907                 1.3809
 IR Inten    --      7.1264                 7.4835                16.3216

                     52                     53                     54
                      A                      A                      A
 Frequencies --   1362.2072              1382.2322              1386.6206
 Red. masses --      1.3135                 1.4574                 1.4684
 Frc consts  --      1.4361                 1.6405                 1.6634
 IR Inten    --      0.5951                 3.2419                 2.8910

                     55                     56                     57
                      A                      A                      A
 Frequencies --   1391.9324              1401.0781              1402.4837
 Red. masses --      1.7012                 1.2630                 1.4609
 Frc consts  --      1.9420                 1.4608                 1.6930
 IR Inten    --     15.2585                 5.5820                 9.0460

                     58                     59                     60
                      A                      A                      A
 Frequencies --   1409.0251              1423.5172              1431.6529
 Red. masses --      1.3769                 1.5338                 1.3988
 Frc consts  --      1.6106                 1.8313                 1.6892
 IR Inten    --     16.1976                13.8193                15.6507

                     61                     62                     63
                      A                      A                      A
 Frequencies --   1433.9986              1475.2334              1481.4563
 Red. masses --      1.3580                 1.1044                 1.0927
 Frc consts  --      1.6453                 1.4161                 1.4130
 IR Inten    --      5.1581                 5.8812                 7.8740

                     64                     65                     66
                      A                      A                      A
 Frequencies --   1482.5332              1495.1105              1495.8949
 Red. masses --      1.0868                 1.1077                 1.1087
 Frc consts  --      1.4073                 1.4589                 1.4618
 IR Inten    --      7.4179                13.7366                10.0506

                     67                     68                     69
                      A                      A                      A
 Frequencies --   1502.1329              1507.7460              1514.7401
 Red. masses --      1.0881                 1.0940                 1.1016
 Frc consts  --      1.4466                 1.4652                 1.4892
 IR Inten    --      0.5303                 4.2828                 8.2693

                     70                     71                     72
                      A                      A                      A
 Frequencies --   3017.4931              3021.1742              3052.1187
 Red. masses --      1.0696                 1.0705                 1.0693
 Frc consts  --      5.7378                 5.7569                 5.8690
 IR Inten    --     39.1976                90.1343                51.6198

                     73                     74                     75
                      A                      A                      A
 Frequencies --   3055.9940              3063.5736              3068.9898
 Red. masses --      1.0679                 1.0632                 1.0781
 Frc consts  --      5.8759                 5.8790                 5.9830
 IR Inten    --     12.1938                42.1176                27.1213

                     76                     77                     78
                      A                      A                      A
 Frequencies --   3071.8937              3073.7118              3078.5876
 Red. masses --      1.0632                 1.0629                 1.0646
 Frc consts  --      5.9115                 5.9164                 5.9450
 IR Inten    --     56.1836                33.1874                10.5073

                     79                     80                     81
                      A                      A                      A
 Frequencies --   3092.6384              3114.1814              3114.7790
 Red. masses --      1.0836                 1.0979                 1.0987
 Frc consts  --      6.1064                 6.2732                 6.2805
 IR Inten    --     74.4356                32.5199                45.8246

                     82                     83                     84
                      A                      A                      A
 Frequencies --   3119.9135              3121.6973              3131.5681
 Red. masses --      1.1026                 1.1027                 1.1034
 Frc consts  --      6.3233                 6.3315                 6.3756
 IR Inten    --     62.2027                54.1001                38.9778

                     85                     86                     87
                      A                      A                      A
 Frequencies --   3134.3188              3136.7595              3137.6487
 Red. masses --      1.0943                 1.0974                 1.0948
 Frc consts  --      6.3339                 6.3620                 6.3501
 IR Inten    --     51.8453                29.1686                56.3381

 - Thermochemistry -
 -------------------
 Temperature   298.150 Kelvin.  Pressure   1.00000 Atm.
 Atom     1 has atomic number  6 and mass  12.00000

 Molecular mass:   186.12559 amu.
 Principal axes and moments of inertia in atomic units:
                           1         2         3
     Eigenvalues --   936.852484409.380134604.61471
           X            0.99999   0.00520   0.00109
           Y           -0.00515   0.99909  -0.04227
           Z           -0.00131   0.04227   0.99911
 This molecule is an asymmetric top.
 Rotational symmetry number  1.
 Warning -- assumption of classical behavior for rotation
           may cause significant error
 Rotational temperatures (Kelvin)      0.09245     0.01964     0.01881
 Rotational constants (GHZ):           1.92639     0.40930     0.39194
 Zero-point vibrational energy     737110.2 (Joules/Mol)
                                  176.17356 (Kcal/Mol)
 Warning -- explicit consideration of  18 degrees of freedom as
           vibrations may cause significant error
 Vibrational temperatures:     33.04    82.75   124.18   226.55   244.34
          (Kelvin)            339.04   366.21   413.13   496.41   540.63
                              546.80   628.70   649.04   674.47   687.99
                              767.25   832.95   877.03  1043.85  1198.74
                             1199.34  1210.62  1267.11  1282.60  1294.46
                             1307.93  1336.60  1358.73  1422.78  1432.18
                             1473.01  1500.78  1517.87  1532.07  1539.48
                             1603.61  1649.78  1657.39  1676.92  1686.40
                             1714.16  1739.00  1758.71  1775.49  1802.22
                             1853.76  1876.79  1897.04  1912.85  1927.28
                             1942.95  1959.91  1988.72  1995.04  2002.68
                             2015.84  2017.86  2027.27  2048.12  2059.83
                             2063.20  2122.53  2131.49  2133.03  2151.13
                             2152.26  2161.23  2169.31  2179.37  4341.50
                             4346.80  4391.32  4396.89  4407.80  4415.59
                             4419.77  4422.39  4429.40  4449.62  4480.61
                             4481.47  4488.86  4491.43  4505.63  4509.59
                             4513.10  4514.38

 Zero-point correction=                           0.280750 (Hartree/Particle)
 Thermal correction to Energy=                    0.292509
 Thermal correction to Enthalpy=                  0.293454
 Thermal correction to Gibbs Free Energy=         0.241894
 Sum of electronic and zero-point Energies=           -617.223606
 Sum of electronic and thermal Energies=              -617.211847
 Sum of electronic and thermal Enthalpies=            -617.210903
 Sum of electronic and thermal Free Energies=         -617.262463

                     E (Thermal)             CV                S
                      KCal/Mol        Cal/Mol-Kelvin    Cal/Mol-Kelvin
 Total                  183.552             46.682            108.517
 Electronic               0.000              0.000              0.000
 Translational            0.889              2.981             41.570
 Rotational               0.889              2.981             31.320
 Vibrational            181.775             40.721             35.626
 Vibration     1          0.593              1.985              6.360
 Vibration     2          0.596              1.974              4.541
 Vibration     3          0.601              1.959              3.742
 Vibration     4          0.621              1.894              2.580
 Vibration     5          0.625              1.880              2.437
 Vibration     6          0.655              1.786              1.836
 Vibration     7          0.665              1.755              1.699
 Vibration     8          0.684              1.698              1.491
 Vibration     9          0.723              1.585              1.189
 Vibration    10          0.747              1.522              1.056
 Vibration    11          0.750              1.513              1.039
 Vibration    12          0.797              1.390              0.836
 Vibration    13          0.810              1.358              0.792
 Vibration    14          0.826              1.319              0.741
 Vibration    15          0.835              1.298              0.715
 Vibration    16          0.888              1.176              0.580
 Vibration    17          0.936              1.077              0.487
 Vibration    18          0.969              1.012              0.433

 Optimization completed.
    -- Stationary point found.
 Normal termination of Gaussian 16 at Sun Nov  4 22:55:25 2018.
