 Gaussian 16, Revision A.03,
 Gaussian 16:  ES64L-G16RevA.03 25-Dec-2016

 ----------------------------------------------------------------------
 #M062X/6-311++G(2d,2p) opt=ModRedundant freq=noraman SCRF=(Solvent=Wat
 er)
 ----------------------------------------------------------------------

 ----------------------------
 L_a1-e4_D_PSI.inp_extract_13
 ----------------------------
 Symbolic Z-matrix:
 Charge =  0 Multiplicity = 1

 SCF Done:  E(RM062X) =  -617.498372412     A.U. after   12 cycles
 SCF Done:  E(RM062X) =  -617.500173006     A.U. after   12 cycles
 SCF Done:  E(RM062X) =  -617.500515484     A.U. after   11 cycles
 SCF Done:  E(RM062X) =  -617.500628117     A.U. after    9 cycles
 SCF Done:  E(RM062X) =  -617.500641632     A.U. after   10 cycles
 SCF Done:  E(RM062X) =  -617.500646146     A.U. after    8 cycles
 Optimization completed.
    -- Stationary point found.
 Normal termination of Gaussian 16 at Sun Nov  4 21:57:08 2018.

 ----------------------------------------------------------------------
 #N Geom=AllCheck Guess=TCheck SCRF=Check GenChk RM062X/6-311++G(2d,2p)
  Freq
 ----------------------------------------------------------------------

 Structure from the checkpoint file:  "L_a1-e4_D_PSI.inp_extract_13.chk"
 ----------------------------
 L_a1-e4_D_PSI.inp_extract_13
 ----------------------------
 Charge =  0 Multiplicity = 1

                         Standard orientation:
 ---------------------------------------------------------------------
 Center     Atomic      Atomic             Coordinates (Angstroms)
 Number     Number       Type             X           Y           Z
 ---------------------------------------------------------------------
      1          6           0        1.830560    1.315453    0.718313
      2          8           0        1.178302    0.137542    1.195689
      3          6           0        3.277826   -0.056974   -0.766338
      4          8           0       -2.843621    1.157054   -0.760287
      5          6           0        1.141335   -0.917655    0.254982
      6          6           0        2.532199   -1.282132   -0.242087
      7          6           0       -3.170060   -0.880761    0.518444
      8          8           0        0.361301   -0.582672   -0.861851
      9          6           0       -1.661160   -1.141424    0.526012
     10          6           0       -3.452265    0.608046    0.401074
     11          6           0       -1.057665   -0.488727   -0.711178
     12          6           0       -1.438892    0.989543   -0.733157
     13          6           0        3.263811    1.034217    0.301979
     14          1           0        1.272605    1.723784   -0.129051
     15          1           0        1.780459    2.029076    1.537752
     16          1           0        2.789382    0.312343   -1.670338
     17          1           0        4.298683   -0.326237   -1.035030
     18          1           0        0.701912   -1.753227    0.796417
     19          1           0        3.077513   -1.708049    0.602249
     20          1           0        2.438744   -2.055068   -1.003622
     21          1           0       -3.624355   -1.266180    1.431206
     22          1           0       -3.633693   -1.396931   -0.324698
     23          1           0       -1.220137   -0.702965    1.423830
     24          1           0       -1.463933   -2.213587    0.539573
     25          1           0       -4.518420    0.804196    0.311006
     26          1           0       -3.075331    1.132938    1.287449
     27          1           0       -1.483199   -0.961550   -1.599589
     28          1           0       -1.037962    1.467183   -1.625484
     29          1           0       -1.016326    1.479500    0.153066
     30          1           0        3.717883    1.954674   -0.066130
     31          1           0        3.834185    0.707184    1.174725
 ---------------------------------------------------------------------

 SCF Done:  E(RM062X) =  -617.500646146     A.U. after    1 cycles

 The electronic state is 1-A.
 Alpha  occ. eigenvalues --  -19.63238 -19.63106 -19.62902 -10.63449 -10.58899
 Alpha  occ. eigenvalues --  -10.58070 -10.57838 -10.57747 -10.53482 -10.53414
 Alpha  occ. eigenvalues --  -10.53055 -10.52973 -10.52847  -1.19850  -1.16627
 Alpha  occ. eigenvalues --   -1.13242  -0.91063  -0.89752  -0.87503  -0.84445
 Alpha  occ. eigenvalues --   -0.75226  -0.74039  -0.72725  -0.70823  -0.66881
 Alpha  occ. eigenvalues --   -0.62475  -0.60250  -0.58562  -0.57265  -0.55762
 Alpha  occ. eigenvalues --   -0.53579  -0.53350  -0.52621  -0.50738  -0.49627
 Alpha  occ. eigenvalues --   -0.49071  -0.46657  -0.46168  -0.45679  -0.44881
 Alpha  occ. eigenvalues --   -0.43870  -0.43157  -0.40733  -0.40149  -0.39228
 Alpha  occ. eigenvalues --   -0.38340  -0.37950  -0.36174  -0.35534  -0.33290
 Alpha  occ. eigenvalues --   -0.31757
 Alpha virt. eigenvalues --   -0.00081   0.00780   0.00877   0.00945   0.02234
 Alpha virt. eigenvalues --    0.02510   0.02668   0.03344   0.03570   0.04430
 Alpha virt. eigenvalues --    0.04757   0.04955   0.05654   0.05887   0.07194

 Mulliken charges:
               1
     1  C   -0.067205
     2  O   -0.285288
     3  C   -0.280104
     4  O   -0.347832
     5  C   -0.130119
     6  C   -0.518953
     7  C   -0.450865
     8  O   -0.320384
     9  C   -0.200827
    10  C   -0.159473
    11  C    0.084147
    12  C   -0.371535
    13  C   -0.445671
    14  H    0.124893
    15  H    0.212818
    16  H    0.174474
    17  H    0.190544
    18  H    0.274819
    19  H    0.194207
    20  H    0.187394
    21  H    0.166404
    22  H    0.180483
    23  H    0.254881
    24  H    0.165905
    25  H    0.215619
    26  H    0.134644
    27  H    0.254350
    28  H    0.212155
    29  H    0.215084
    30  H    0.173552
    31  H    0.161883
 Sum of Mulliken charges =  -0.00000

 Dipole moment (field-independent basis, Debye):
    X=              0.9539    Y=             -1.2357    Z=              1.2366  Tot=              1.9914
 Quadrupole moment (field-independent basis, Debye-Ang):
   XX=            -75.1655   YY=            -77.7383   ZZ=            -84.3871
   XY=              5.7420   XZ=             -5.6216   YZ=              1.0128

  Exact polarizability: 175.542   2.151 157.739  -2.083   0.288 150.448
 Approx polarizability: 147.142   1.466 141.717   0.440  -0.408 143.234

                      1                      2                      3
                      A                      A                      A
 Frequencies --     46.2517                73.3906               100.7172
 Red. masses --      3.5094                 4.3600                 3.4156
 Frc consts  --      0.0044                 0.0138                 0.0204
 IR Inten    --      0.5157                 2.0480                 2.8674

                      4                      5                      6
                      A                      A                      A
 Frequencies --    160.8845               181.5596               226.9145
 Red. masses --      2.8201                 3.4396                 3.1598
 Frc consts  --      0.0430                 0.0668                 0.0959
 IR Inten    --      1.8646                 0.9356                 6.8354

                      7                      8                      9
                      A                      A                      A
 Frequencies --    263.5016               302.1693               337.1965
 Red. masses --      2.0586                 2.3301                 2.8855
 Frc consts  --      0.0842                 0.1254                 0.1933
 IR Inten    --      5.6215                 4.4131                 9.6457

                     10                     11                     12
                      A                      A                      A
 Frequencies --    367.6106               379.9880               436.8847
 Red. masses --      2.2963                 2.6794                 3.2366
 Frc consts  --      0.1828                 0.2279                 0.3640
 IR Inten    --     20.4125                 3.0038                11.4591

                     13                     14                     15
                      A                      A                      A
 Frequencies --    440.4847               463.8166               481.7842
 Red. masses --      3.1311                 3.4652                 2.7055
 Frc consts  --      0.3579                 0.4392                 0.3700
 IR Inten    --      1.3507                 2.4035                 1.5141

                     16                     17                     18
                      A                      A                      A
 Frequencies --    536.4774               570.2235               648.7223
 Red. masses --      2.0445                 2.0767                 4.5034
 Frc consts  --      0.3467                 0.3978                 1.1166
 IR Inten    --      3.5802                16.3707                 3.8629

                     19                     20                     21
                      A                      A                      A
 Frequencies --    707.9533               821.5142               835.8867
 Red. masses --      2.7966                 1.9434                 1.6698
 Frc consts  --      0.8258                 0.7727                 0.6874
 IR Inten    --      2.7171                 1.7797                 2.8907

                     22                     23                     24
                      A                      A                      A
 Frequencies --    840.9630               884.9454               889.1069
 Red. masses --      3.3790                 1.3798                 2.3866
 Frc consts  --      1.4080                 0.6367                 1.1116
 IR Inten    --     10.8539                11.2164                12.4144

                     25                     26                     27
                      A                      A                      A
 Frequencies --    895.9508               912.4246               929.0974
 Red. masses --      2.4325                 2.2465                 1.8210
 Frc consts  --      1.1505                 1.1019                 0.9261
 IR Inten    --     11.1245                26.7933                19.7007

                     28                     29                     30
                      A                      A                      A
 Frequencies --    949.5998               981.7909               996.0433
 Red. masses --      2.3377                 1.9999                 1.6390
 Frc consts  --      1.2420                 1.1358                 0.9580
 IR Inten    --     36.4363                27.2482                15.1722

                     31                     32                     33
                      A                      A                      A
 Frequencies --   1015.5780              1046.3536              1058.6864
 Red. masses --      2.0578                 2.2992                 1.6951
 Frc consts  --      1.2505                 1.4832                 1.1194
 IR Inten    --     68.3489                63.1999                32.4351

                     34                     35                     36
                      A                      A                      A
 Frequencies --   1061.3192              1074.5287              1113.4974
 Red. masses --      1.6892                 2.0792                 4.1634
 Frc consts  --      1.1211                 1.4144                 3.0414
 IR Inten    --     57.2306                37.1984               217.1995

                     37                     38                     39
                      A                      A                      A
 Frequencies --   1142.0517              1154.7667              1160.3126
 Red. masses --      2.4061                 3.3036                 2.3033
 Frc consts  --      1.8490                 2.5956                 1.8270
 IR Inten    --     18.9345               130.7884                21.4935

                     40                     41                     42
                      A                      A                      A
 Frequencies --   1179.6429              1192.6892              1208.9635
 Red. masses --      3.8787                 2.2891                 1.3987
 Frc consts  --      3.1801                 1.9185                 1.2045
 IR Inten    --    250.0697                31.2172                10.8163

                     43                     44                     45
                      A                      A                      A
 Frequencies --   1218.7424              1233.7756              1254.3009
 Red. masses --      1.5019                 1.6316                 1.5329
 Frc consts  --      1.3144                 1.4633                 1.4209
 IR Inten    --     59.3616                43.9586                13.8983

                     46                     47                     48
                      A                      A                      A
 Frequencies --   1288.6969              1307.6844              1321.9927
 Red. masses --      1.2133                 1.1828                 1.1573
 Frc consts  --      1.1872                 1.1917                 1.1917
 IR Inten    --     18.1976                 5.9773                 8.4136

                     49                     50                     51
                      A                      A                      A
 Frequencies --   1331.6834              1348.0415              1360.0387
 Red. masses --      1.2725                 1.2738                 1.2221
 Frc consts  --      1.3296                 1.3638                 1.3318
 IR Inten    --     11.1918                 9.1412                 5.3782

                     52                     53                     54
                      A                      A                      A
 Frequencies --   1361.7885              1382.9815              1386.1292
 Red. masses --      1.3657                 1.4113                 1.4610
 Frc consts  --      1.4922                 1.5904                 1.6539
 IR Inten    --      6.3209                 6.6981                 3.1325

                     55                     56                     57
                      A                      A                      A
 Frequencies --   1391.9645              1401.3878              1403.2339
 Red. masses --      1.6651                 1.2399                 1.4406
 Frc consts  --      1.9009                 1.4347                 1.6713
 IR Inten    --      6.1335                 6.8130                11.8929

                     58                     59                     60
                      A                      A                      A
 Frequencies --   1415.2027              1419.5753              1427.9427
 Red. masses --      1.4527                 1.3379                 1.4258
 Frc consts  --      1.7142                 1.5885                 1.7129
 IR Inten    --      4.0167                23.7544                 3.8286

                     61                     62                     63
                      A                      A                      A
 Frequencies --   1434.2636              1475.6668              1481.3264
 Red. masses --      1.3527                 1.1042                 1.0943
 Frc consts  --      1.6395                 1.4167                 1.4148
 IR Inten    --     21.8870                 5.3656                 8.6860

                     64                     65                     66
                      A                      A                      A
 Frequencies --   1482.5663              1495.3382              1500.9977
 Red. masses --      1.0862                 1.1082                 1.1058
 Frc consts  --      1.4066                 1.4600                 1.4679
 IR Inten    --      8.3530                12.5543                 6.3378

                     67                     68                     69
                      A                      A                      A
 Frequencies --   1502.4161              1509.8875              1516.8540
 Red. masses --      1.0832                 1.0932                 1.1005
 Frc consts  --      1.4406                 1.4684                 1.4919
 IR Inten    --      1.0441                 3.0252                 8.4142

                     70                     71                     72
                      A                      A                      A
 Frequencies --   3018.9214              3025.4261              3056.0978
 Red. masses --      1.0706                 1.0677                 1.0683
 Frc consts  --      5.7486                 5.7583                 5.8786
 IR Inten    --     61.8747                57.1048                43.0880

                     73                     74                     75
                      A                      A                      A
 Frequencies --   3064.3859              3064.6613              3070.2512
 Red. masses --      1.0712                 1.0672                 1.0672
 Frc consts  --      5.9266                 5.9053                 5.9271
 IR Inten    --     50.2851                19.2128                14.7279

                     76                     77                     78
                      A                      A                      A
 Frequencies --   3071.5300              3072.3217              3077.4342
 Red. masses --      1.0628                 1.0639                 1.0625
 Frc consts  --      5.9075                 5.9169                 5.9285
 IR Inten    --     26.5199                82.3516                22.8465

                     79                     80                     81
                      A                      A                      A
 Frequencies --   3113.4586              3116.2822              3118.7299
 Red. masses --      1.0976                 1.1010                 1.1024
 Frc consts  --      6.2685                 6.2996                 6.3176
 IR Inten    --     47.8939                18.0695                52.3032

                     82                     83                     84
                      A                      A                      A
 Frequencies --   3122.6999              3124.1207              3129.9070
 Red. masses --      1.0959                 1.0944                 1.1025
 Frc consts  --      6.2960                 6.2934                 6.3637
 IR Inten    --     56.1677                70.6057                52.7038

                     85                     86                     87
                      A                      A                      A
 Frequencies --   3130.0213              3135.0279              3135.7508
 Red. masses --      1.0970                 1.0983                 1.0956
 Frc consts  --      6.3320                 6.3598                 6.3475
 IR Inten    --     35.6166                50.2642                29.2517

 - Thermochemistry -
 -------------------
 Temperature   298.150 Kelvin.  Pressure   1.00000 Atm.
 Atom     1 has atomic number  6 and mass  12.00000

 Molecular mass:   186.12559 amu.
 Principal axes and moments of inertia in atomic units:
                           1         2         3
     Eigenvalues --   981.021364003.102564256.19987
           X            0.99989   0.01037  -0.01104
           Y           -0.01029   0.99992   0.00674
           Z            0.01111  -0.00662   0.99992
 This molecule is an asymmetric top.
 Rotational symmetry number  1.
 Warning -- assumption of classical behavior for rotation
           may cause significant error
 Rotational temperatures (Kelvin)      0.08829     0.02164     0.02035
 Rotational constants (GHZ):           1.83966     0.45084     0.42403
 Zero-point vibrational energy     737938.9 (Joules/Mol)
                                  176.37163 (Kcal/Mol)
 Warning -- explicit consideration of  17 degrees of freedom as
           vibrations may cause significant error
 Vibrational temperatures:     66.55   105.59   144.91   231.48   261.22
          (Kelvin)            326.48   379.12   434.75   485.15   528.91
                              546.72   628.58   633.76   667.33   693.18
                              771.87   820.42   933.37  1018.59  1181.98
                             1202.65  1209.96  1273.24  1279.23  1289.07
                             1312.78  1336.76  1366.26  1412.58  1433.08
                             1461.19  1505.47  1523.21  1527.00  1546.01
                             1602.07  1643.16  1661.45  1669.43  1697.24
                             1716.01  1739.43  1753.50  1775.13  1804.66
                             1854.15  1881.47  1902.05  1916.00  1939.53
                             1956.79  1959.31  1989.80  1994.33  2002.73
                             2016.28  2018.94  2036.16  2042.45  2054.49
                             2063.59  2123.16  2131.30  2133.08  2151.46
                             2159.60  2161.64  2172.39  2182.41  4343.55
                             4352.91  4397.04  4408.97  4409.36  4417.41
                             4419.25  4420.39  4427.74  4479.57  4483.63
                             4487.16  4492.87  4494.91  4503.24  4503.40
                             4510.61  4511.65

 Zero-point correction=                           0.281066 (Hartree/Particle)
 Thermal correction to Energy=                    0.292690
 Thermal correction to Enthalpy=                  0.293634
 Thermal correction to Gibbs Free Energy=         0.243245
 Sum of electronic and zero-point Energies=           -617.219580
 Sum of electronic and thermal Energies=              -617.207956
 Sum of electronic and thermal Enthalpies=            -617.207012
 Sum of electronic and thermal Free Energies=         -617.257401

                     E (Thermal)             CV                S
                      KCal/Mol        Cal/Mol-Kelvin    Cal/Mol-Kelvin
 Total                  183.666             46.635            106.053
 Electronic               0.000              0.000              0.000
 Translational            0.889              2.981             41.570
 Rotational               0.889              2.981             31.192
 Vibrational            181.888             40.673             33.292
 Vibration     1          0.595              1.979              4.972
 Vibration     2          0.599              1.967              4.060
 Vibration     3          0.604              1.949              3.440
 Vibration     4          0.622              1.890              2.539
 Vibration     5          0.630              1.865              2.312
 Vibration     6          0.651              1.800              1.903
 Vibration     7          0.670              1.740              1.638
 Vibration     8          0.694              1.670              1.405
 Vibration     9          0.718              1.601              1.225
 Vibration    10          0.740              1.539              1.090
 Vibration    11          0.750              1.513              1.039
 Vibration    12          0.797              1.390              0.836
 Vibration    13          0.800              1.382              0.825
 Vibration    14          0.821              1.330              0.755
 Vibration    15          0.838              1.290              0.705
 Vibration    16          0.891              1.169              0.573
 Vibration    17          0.926              1.096              0.504

 Optimization completed.
    -- Stationary point found.
 Normal termination of Gaussian 16 at Sun Nov  4 22:51:16 2018.
