 Gaussian 16, Revision A.03,
 Gaussian 16:  ES64L-G16RevA.03 25-Dec-2016

 ----------------------------------------------------------------------
 #M062X/6-311++G(2d,2p) opt=ModRedundant freq=noraman SCRF=(Solvent=Wat
 er)
 ----------------------------------------------------------------------

 ----------------------------
 L_a1-e4_D_PSI.inp_extract_20
 ----------------------------
 Symbolic Z-matrix:
 Charge =  0 Multiplicity = 1

 SCF Done:  E(RM062X) =  -617.501897488     A.U. after   12 cycles
 SCF Done:  E(RM062X) =  -617.503989455     A.U. after   11 cycles
 SCF Done:  E(RM062X) =  -617.504291520     A.U. after   10 cycles
 SCF Done:  E(RM062X) =  -617.504334756     A.U. after    9 cycles
 SCF Done:  E(RM062X) =  -617.504340504     A.U. after    8 cycles
 SCF Done:  E(RM062X) =  -617.504343477     A.U. after    8 cycles
 SCF Done:  E(RM062X) =  -617.504343761     A.U. after    6 cycles
 Optimization completed.
    -- Stationary point found.
 Normal termination of Gaussian 16 at Sun Nov  4 21:58:52 2018.

 ----------------------------------------------------------------------
 #N Geom=AllCheck Guess=TCheck SCRF=Check GenChk RM062X/6-311++G(2d,2p)
  Freq
 ----------------------------------------------------------------------

 Structure from the checkpoint file:  "L_a1-e4_D_PSI.inp_extract_20.chk"
 ----------------------------
 L_a1-e4_D_PSI.inp_extract_20
 ----------------------------
 Charge =  0 Multiplicity = 1

                         Standard orientation:
 ---------------------------------------------------------------------
 Center     Atomic      Atomic             Coordinates (Angstroms)
 Number     Number       Type             X           Y           Z
 ---------------------------------------------------------------------
      1          6           0        2.062908    1.451121   -0.185335
      2          8           0        1.562732    0.837880    1.004159
      3          6           0        3.115917   -0.699815   -0.864707
      4          8           0       -3.349095   -0.989634   -0.029476
      5          6           0        1.300121   -0.540595    0.866822
      6          6           0        2.531755   -1.306223    0.409855
      7          6           0       -2.815603    1.364088    0.216265
      8          8           0        0.267402   -0.800060   -0.050238
      9          6           0       -1.337605    1.070482   -0.046952
     10          6           0       -3.687941    0.321951   -0.462736
     11          6           0       -1.029098   -0.370526    0.343156
     12          6           0       -2.009187   -1.315640   -0.341416
     13          6           0        3.350688    0.794552   -0.651997
     14          1           0        1.304442    1.390797   -0.970537
     15          1           0        2.212566    2.498585    0.067278
     16          1           0        2.418846   -0.844751   -1.692516
     17          1           0        4.044039   -1.205270   -1.129209
     18          1           0        0.984602   -0.858134    1.863749
     19          1           0        3.267571   -1.250145    1.214131
     20          1           0        2.264262   -2.353032    0.273181
     21          1           0       -3.079748    2.356749   -0.148755
     22          1           0       -3.014353    1.344856    1.290170
     23          1           0       -1.125942    1.184890   -1.114448
     24          1           0       -0.695524    1.759333    0.497258
     25          1           0       -4.739283    0.460715   -0.220282
     26          1           0       -3.570581    0.382969   -1.551667
     27          1           0       -1.133748   -0.485648    1.428783
     28          1           0       -1.840021   -2.338031   -0.009668
     29          1           0       -1.848650   -1.266311   -1.426084
     30          1           0        3.687757    1.276356   -1.570218
     31          1           0        4.123722    0.944219    0.105551
 ---------------------------------------------------------------------

 SCF Done:  E(RM062X) =  -617.504343761     A.U. after    1 cycles

 The electronic state is 1-A.
 Alpha  occ. eigenvalues --  -19.63446 -19.63148 -19.62970 -10.63593 -10.58828
 Alpha  occ. eigenvalues --  -10.58081 -10.58027 -10.57760 -10.53204 -10.53074
 Alpha  occ. eigenvalues --  -10.53014 -10.52923 -10.52883  -1.20134  -1.16680
 Alpha  occ. eigenvalues --   -1.13586  -0.91066  -0.89706  -0.87424  -0.84383
 Alpha  occ. eigenvalues --   -0.74706  -0.73920  -0.72910  -0.70989  -0.65917
 Alpha  occ. eigenvalues --   -0.63975  -0.59920  -0.58857  -0.57242  -0.55797
 Alpha  occ. eigenvalues --   -0.54333  -0.53195  -0.51935  -0.50632  -0.49545
 Alpha  occ. eigenvalues --   -0.48487  -0.47756  -0.46124  -0.45306  -0.44774
 Alpha  occ. eigenvalues --   -0.43965  -0.41627  -0.41390  -0.40460  -0.39752
 Alpha  occ. eigenvalues --   -0.38386  -0.37747  -0.36364  -0.35230  -0.33486
 Alpha  occ. eigenvalues --   -0.31931
 Alpha virt. eigenvalues --   -0.00051   0.00746   0.00814   0.01080   0.02194
 Alpha virt. eigenvalues --    0.02525   0.02643   0.03365   0.03601   0.04398
 Alpha virt. eigenvalues --    0.04800   0.04978   0.05552   0.05753   0.07049

 Mulliken charges:
               1
     1  C   -0.090830
     2  O   -0.265792
     3  C   -0.295283
     4  O   -0.339011
     5  C   -0.120553
     6  C   -0.377266
     7  C   -0.459573
     8  O   -0.289225
     9  C   -0.292332
    10  C   -0.218121
    11  C    0.055344
    12  C   -0.305461
    13  C   -0.403161
    14  H    0.127108
    15  H    0.210984
    16  H    0.172875
    17  H    0.187816
    18  H    0.235300
    19  H    0.188288
    20  H    0.184492
    21  H    0.173686
    22  H    0.170601
    23  H    0.238280
    24  H    0.193222
    25  H    0.215684
    26  H    0.136520
    27  H    0.237573
    28  H    0.199088
    29  H    0.187255
    30  H    0.173592
    31  H    0.168899
 Sum of Mulliken charges =  -0.00000

 Dipole moment (field-independent basis, Debye):
    X=              1.4396    Y=              1.3839    Z=             -1.0797  Tot=              2.2702
 Quadrupole moment (field-independent basis, Debye-Ang):
   XX=            -79.6704   YY=            -79.4987   ZZ=            -80.3924
   XY=             -7.3924   XZ=              0.0321   YZ=             -3.4918

  Exact polarizability: 173.424  -2.707 160.891  -1.245  -2.006 150.999
 Approx polarizability: 145.668  -0.800 143.406  -0.773  -1.201 143.146

                      1                      2                      3
                      A                      A                      A
 Frequencies --     31.1028                78.0488                97.7003
 Red. masses --      3.4236                 3.6035                 3.7296
 Frc consts  --      0.0020                 0.0129                 0.0210
 IR Inten    --      1.1771                 0.2833                 1.5531

                      4                      5                      6
                      A                      A                      A
 Frequencies --    135.8984               202.9393               245.4833
 Red. masses --      3.2566                 2.8189                 2.0568
 Frc consts  --      0.0354                 0.0684                 0.0730
 IR Inten    --      3.5477                 3.9011                 5.4924

                      7                      8                      9
                      A                      A                      A
 Frequencies --    251.7878               262.9556               334.4786
 Red. masses --      3.4898                 2.7244                 2.8741
 Frc consts  --      0.1304                 0.1110                 0.1894
 IR Inten    --      2.5425                 0.9864                13.4206

                     10                     11                     12
                      A                      A                      A
 Frequencies --    360.7747               386.7111               431.3462
 Red. masses --      2.0625                 2.3205                 3.4420
 Frc consts  --      0.1582                 0.2045                 0.3773
 IR Inten    --      9.7861                13.7459                 5.9189

                     13                     14                     15
                      A                      A                      A
 Frequencies --    453.5742               465.0285               491.1464
 Red. masses --      3.7693                 3.2386                 2.2604
 Frc consts  --      0.4569                 0.4126                 0.3213
 IR Inten    --      3.6334                 1.3341                 1.0652

                     16                     17                     18
                      A                      A                      A
 Frequencies --    533.1417               575.9242               626.9376
 Red. masses --      2.2250                 2.3071                 3.2374
 Frc consts  --      0.3726                 0.4509                 0.7497
 IR Inten    --      3.2420                13.1375                12.9137

                     19                     20                     21
                      A                      A                      A
 Frequencies --    719.4490               828.7435               834.0342
 Red. masses --      2.9663                 2.2850                 1.5207
 Frc consts  --      0.9046                 0.9247                 0.6233
 IR Inten    --      4.1998                 0.8580                 2.6581

                     22                     23                     24
                      A                      A                      A
 Frequencies --    842.1142               880.8948               894.4050
 Red. masses --      3.2266                 1.3912                 2.3652
 Frc consts  --      1.3482                 0.6360                 1.1148
 IR Inten    --      6.9501                13.8676                22.8240

                     25                     26                     27
                      A                      A                      A
 Frequencies --    898.7078               908.8843               933.7430
 Red. masses --      2.4143                 2.4416                 1.6129
 Frc consts  --      1.1489                 1.1884                 0.8286
 IR Inten    --      7.1614                23.9597                23.2300

                     28                     29                     30
                      A                      A                      A
 Frequencies --    944.5051               981.3187               996.7630
 Red. masses --      2.2148                 2.3910                 1.4178
 Frc consts  --      1.1641                 1.3566                 0.8299
 IR Inten    --     51.2088                34.8355                 8.8310

                     31                     32                     33
                      A                      A                      A
 Frequencies --   1034.4542              1044.3891              1058.3863
 Red. masses --      2.1892                 2.2400                 1.7353
 Frc consts  --      1.3802                 1.4396                 1.1453
 IR Inten    --     32.3898                64.1841                51.8085

                     34                     35                     36
                      A                      A                      A
 Frequencies --   1063.9390              1073.1586              1115.0654
 Red. masses --      1.5350                 2.2474                 4.6270
 Frc consts  --      1.0238                 1.5250                 3.3896
 IR Inten    --     61.6070                15.2088               252.2661

                     37                     38                     39
                      A                      A                      A
 Frequencies --   1146.4578              1155.3575              1169.5228
 Red. masses --      2.3585                 2.8409                 2.4866
 Frc consts  --      1.8264                 2.2343                 2.0039
 IR Inten    --      7.1105               118.8255                14.8561

                     40                     41                     42
                      A                      A                      A
 Frequencies --   1176.8722              1194.3213              1210.2943
 Red. masses --      3.5873                 2.6872                 1.4679
 Frc consts  --      2.9273                 2.2583                 1.2669
 IR Inten    --    222.5570                90.0955                17.1883

                     43                     44                     45
                      A                      A                      A
 Frequencies --   1215.0906              1234.6020              1246.4690
 Red. masses --      1.4380                 1.6427                 1.5071
 Frc consts  --      1.2509                 1.4752                 1.3796
 IR Inten    --     30.0980                55.9007                22.1611

                     46                     47                     48
                      A                      A                      A
 Frequencies --   1290.1857              1304.1582              1321.1133
 Red. masses --      1.2182                 1.1889                 1.1562
 Frc consts  --      1.1948                 1.1914                 1.1889
 IR Inten    --     17.7007                22.1585                 9.1947

                     49                     50                     51
                      A                      A                      A
 Frequencies --   1330.4681              1342.8387              1348.1573
 Red. masses --      1.2944                 1.2635                 1.2194
 Frc consts  --      1.3500                 1.3424                 1.3058
 IR Inten    --      8.3616                 0.9619                33.4994

                     52                     53                     54
                      A                      A                      A
 Frequencies --   1362.2758              1381.4661              1386.6376
 Red. masses --      1.3363                 1.4310                 1.4719
 Frc consts  --      1.4611                 1.6090                 1.6674
 IR Inten    --      3.9902                 6.6083                 0.7191

                     55                     56                     57
                      A                      A                      A
 Frequencies --   1390.0871              1395.1570              1400.8916
 Red. masses --      1.5539                 1.5952                 1.3182
 Frc consts  --      1.7692                 1.8294                 1.5242
 IR Inten    --      2.4633                28.5456                23.5519

                     58                     59                     60
                      A                      A                      A
 Frequencies --   1406.1133              1420.0486              1432.9983
 Red. masses --      1.3676                 1.3959                 1.4023
 Frc consts  --      1.5931                 1.6585                 1.6966
 IR Inten    --      9.6714                 8.1563                14.6705

                     61                     62                     63
                      A                      A                      A
 Frequencies --   1445.1795              1476.2787              1480.6838
 Red. masses --      1.3952                 1.1060                 1.0920
 Frc consts  --      1.7169                 1.4202                 1.4106
 IR Inten    --      4.7644                 4.8351                 8.5329

                     64                     65                     66
                      A                      A                      A
 Frequencies --   1482.6539              1495.6794              1497.0353
 Red. masses --      1.0861                 1.1086                 1.1065
 Frc consts  --      1.4068                 1.4612                 1.4610
 IR Inten    --      8.6776                14.0404                 7.7304

                     67                     68                     69
                      A                      A                      A
 Frequencies --   1502.2342              1510.2298              1515.2077
 Red. masses --      1.0888                 1.0934                 1.1012
 Frc consts  --      1.4477                 1.4694                 1.4895
 IR Inten    --      1.2294                 3.3882                 8.9614

                     70                     71                     72
                      A                      A                      A
 Frequencies --   3016.2514              3020.9805              3029.7027
 Red. masses --      1.0712                 1.0705                 1.0802
 Frc consts  --      5.7421                 5.7563                 5.8420
 IR Inten    --     23.1520                84.1178                63.4049

                     73                     74                     75
                      A                      A                      A
 Frequencies --   3055.6198              3059.5256              3065.7973
 Red. masses --      1.0698                 1.0678                 1.0626
 Frc consts  --      5.8849                 5.8891                 5.8844
 IR Inten    --     21.7049                49.8861                54.2088

                     76                     77                     78
                      A                      A                      A
 Frequencies --   3068.3188              3069.2583              3072.0685
 Red. masses --      1.0784                 1.0625                 1.0641
 Frc consts  --      5.9819                 5.8970                 5.9169
 IR Inten    --     26.8226                65.3687                22.5927

                     79                     80                     81
                      A                      A                      A
 Frequencies --   3082.2180              3113.7388              3118.7935
 Red. masses --      1.0681                 1.0976                 1.1007
 Frc consts  --      5.9782                 6.2698                 6.3077
 IR Inten    --     69.0321                36.9978                59.5733

                     82                     83                     84
                      A                      A                      A
 Frequencies --   3118.9973              3132.2214              3133.5087
 Red. masses --      1.1025                 1.1026                 1.0942
 Frc consts  --      6.3191                 6.3734                 6.3302
 IR Inten    --     56.1920                37.4761                51.4209

                     85                     86                     87
                      A                      A                      A
 Frequencies --   3135.0997              3135.7039              3142.9393
 Red. masses --      1.0997                 1.0956                 1.0959
 Frc consts  --      6.3681                 6.3473                 6.3782
 IR Inten    --     59.6263                24.4392                18.4790

 - Thermochemistry -
 -------------------
 Temperature   298.150 Kelvin.  Pressure   1.00000 Atm.
 Atom     1 has atomic number  6 and mass  12.00000

 Molecular mass:   186.12559 amu.
 Principal axes and moments of inertia in atomic units:
                           1         2         3
     Eigenvalues --   964.201974182.032084646.14799
           X            0.99991  -0.01262  -0.00330
           Y            0.01255   0.99971  -0.02048
           Z            0.00356   0.02043   0.99978
 This molecule is an asymmetric top.
 Rotational symmetry number  1.
 Warning -- assumption of classical behavior for rotation
           may cause significant error
 Rotational temperatures (Kelvin)      0.08983     0.02071     0.01864
 Rotational constants (GHZ):           1.87175     0.43155     0.38844
 Zero-point vibrational energy     737231.3 (Joules/Mol)
                                  176.20250 (Kcal/Mol)
 Warning -- explicit consideration of  17 degrees of freedom as
           vibrations may cause significant error
 Vibrational temperatures:     44.75   112.29   140.57   195.53   291.98
          (Kelvin)            353.20   362.27   378.33   481.24   519.07
                              556.39   620.61   652.59   669.07   706.65
                              767.07   828.63   902.02  1035.13  1192.38
                             1199.99  1211.61  1267.41  1286.85  1293.04
                             1307.68  1343.45  1358.93  1411.90  1434.12
                             1488.35  1502.64  1522.78  1530.77  1544.04
                             1604.33  1649.50  1662.30  1682.68  1693.26
                             1718.36  1741.34  1748.24  1776.32  1793.39
                             1856.29  1876.39  1900.79  1914.25  1932.05
                             1939.70  1960.01  1987.62  1995.06  2000.03
                             2007.32  2015.57  2023.08  2043.13  2061.77
                             2079.29  2124.04  2130.37  2133.21  2151.95
                             2153.90  2161.38  2172.88  2180.05  4339.71
                             4346.52  4359.07  4396.36  4401.97  4411.00
                             4414.63  4415.98  4420.02  4434.62  4479.98
                             4487.25  4487.54  4506.57  4508.42  4510.71
                             4511.58  4521.99

 Zero-point correction=                           0.280797 (Hartree/Particle)
 Thermal correction to Energy=                    0.292490
 Thermal correction to Enthalpy=                  0.293434
 Thermal correction to Gibbs Free Energy=         0.242521
 Sum of electronic and zero-point Energies=           -617.223547
 Sum of electronic and thermal Energies=              -617.211854
 Sum of electronic and thermal Enthalpies=            -617.210910
 Sum of electronic and thermal Free Energies=         -617.261822

                     E (Thermal)             CV                S
                      KCal/Mol        Cal/Mol-Kelvin    Cal/Mol-Kelvin
 Total                  183.540             46.659            107.154
 Electronic               0.000              0.000              0.000
 Translational            0.889              2.981             41.570
 Rotational               0.889              2.981             31.305
 Vibrational            181.763             40.697             34.279
 Vibration     1          0.594              1.983              5.758
 Vibration     2          0.599              1.964              3.939
 Vibration     3          0.603              1.951              3.500
 Vibration     4          0.614              1.917              2.861
 Vibration     5          0.639              1.836              2.106
 Vibration     6          0.660              1.770              1.763
 Vibration     7          0.664              1.760              1.718
 Vibration     8          0.670              1.741              1.642
 Vibration     9          0.716              1.607              1.238
 Vibration    10          0.735              1.553              1.119
 Vibration    11          0.755              1.499              1.013
 Vibration    12          0.792              1.402              0.854
 Vibration    13          0.812              1.353              0.785
 Vibration    14          0.822              1.328              0.752
 Vibration    15          0.847              1.270              0.681
 Vibration    16          0.888              1.177              0.580
 Vibration    17          0.932              1.083              0.493

 Optimization completed.
    -- Stationary point found.
 Normal termination of Gaussian 16 at Sun Nov  4 23:06:08 2018.
