 Gaussian 16, Revision A.03,
 Gaussian 16:  ES64L-G16RevA.03 25-Dec-2016

 ----------------------------------------------------------------------
 #M062X/6-311++G(2d,2p) opt=ModRedundant freq=noraman SCRF=(Solvent=Wat
 er)
 ----------------------------------------------------------------------

 ----------------------------
 L_a1-e4_D_PSI.inp_extract_22
 ----------------------------
 Symbolic Z-matrix:
 Charge =  0 Multiplicity = 1

 SCF Done:  E(RM062X) =  -617.502520719     A.U. after   12 cycles
 SCF Done:  E(RM062X) =  -617.504174570     A.U. after   11 cycles
 SCF Done:  E(RM062X) =  -617.504277309     A.U. after    9 cycles
 SCF Done:  E(RM062X) =  -617.504294190     A.U. after    9 cycles
 SCF Done:  E(RM062X) =  -617.504296924     A.U. after    8 cycles
 SCF Done:  E(RM062X) =  -617.504297046     A.U. after    6 cycles
 Optimization completed.
    -- Stationary point found.
 Normal termination of Gaussian 16 at Sun Nov  4 21:48:54 2018.

 ----------------------------------------------------------------------
 #N Geom=AllCheck Guess=TCheck SCRF=Check GenChk RM062X/6-311++G(2d,2p)
  Freq
 ----------------------------------------------------------------------

 Structure from the checkpoint file:  "L_a1-e4_D_PSI.inp_extract_22.chk"
 ----------------------------
 L_a1-e4_D_PSI.inp_extract_22
 ----------------------------
 Charge =  0 Multiplicity = 1

                         Standard orientation:
 ---------------------------------------------------------------------
 Center     Atomic      Atomic             Coordinates (Angstroms)
 Number     Number       Type             X           Y           Z
 ---------------------------------------------------------------------
      1          6           0       -2.197856    1.433189   -0.225813
      2          8           0       -1.605291    0.565260   -1.194466
      3          6           0       -3.145244   -0.524475    0.981264
      4          8           0        3.316011   -0.959601   -0.304553
      5          6           0       -1.272513   -0.708873   -0.687813
      6          6           0       -2.468329   -1.408704   -0.064179
      7          6           0        2.890322    1.409070    0.019639
      8          8           0       -0.259390   -0.619880    0.281522
      9          6           0        1.440990    1.107587    0.403868
     10          6           0        3.777637    0.218563    0.344751
     11          6           0        1.007032   -0.208049   -0.221916
     12          6           0        2.009285   -1.306547    0.112098
     13          6           0       -3.464189    0.834285    0.361024
     14          1           0       -1.477025    1.633372    0.571614
     15          1           0       -2.397263    2.364057   -0.751859
     16          1           0       -2.477536   -0.387036    1.834259
     17          1           0       -4.049670   -1.006593    1.350472
     18          1           0       -0.903489   -1.261149   -1.555240
     19          1           0       -3.172262   -1.630652   -0.868296
     20          1           0       -2.136683   -2.355288    0.360447
     21          1           0        3.253283    2.290906    0.547729
     22          1           0        2.956289    1.615497   -1.050823
     23          1           0        1.355506    1.012837    1.490243
     24          1           0        0.774828    1.909228    0.085687
     25          1           0        4.797512    0.376552    0.000900
     26          1           0        3.798077    0.047970    1.428156
     27          1           0        0.955843   -0.093185   -1.308382
     28          1           0        1.741393   -2.230994   -0.396966
     29          1           0        1.990230   -1.483968    1.195033
     30          1           0       -3.876241    1.520224    1.101691
     31          1           0       -4.206246    0.715714   -0.432220
 ---------------------------------------------------------------------

 SCF Done:  E(RM062X) =  -617.504297046     A.U. after    1 cycles

 The electronic state is 1-A.
 Alpha  occ. eigenvalues --  -19.63340 -19.63143 -19.63040 -10.63616 -10.58710
 Alpha  occ. eigenvalues --  -10.58064 -10.58006 -10.57768 -10.53278 -10.53161
 Alpha  occ. eigenvalues --  -10.53125 -10.53036 -10.52883  -1.20183  -1.16652
 Alpha  occ. eigenvalues --   -1.13458  -0.91116  -0.89814  -0.87294  -0.84447
 Alpha  occ. eigenvalues --   -0.74472  -0.74126  -0.73042  -0.71013  -0.65751
 Alpha  occ. eigenvalues --   -0.64256  -0.59782  -0.58685  -0.57477  -0.56120
 Alpha  occ. eigenvalues --   -0.54111  -0.53219  -0.51773  -0.51039  -0.49588
 Alpha  occ. eigenvalues --   -0.48165  -0.47556  -0.46021  -0.45571  -0.45022
 Alpha  occ. eigenvalues --   -0.44089  -0.42144  -0.40691  -0.40473  -0.39463
 Alpha  occ. eigenvalues --   -0.38485  -0.38013  -0.36473  -0.35535  -0.33528
 Alpha  occ. eigenvalues --   -0.31823
 Alpha virt. eigenvalues --   -0.00065   0.00754   0.00832   0.01047   0.02162
 Alpha virt. eigenvalues --    0.02503   0.02649   0.03374   0.03564   0.04359
 Alpha virt. eigenvalues --    0.04754   0.04854   0.05560   0.05855   0.07322

 Mulliken charges:
               1
     1  C   -0.104590
     2  O   -0.298274
     3  C   -0.306396
     4  O   -0.331784
     5  C   -0.156461
     6  C   -0.367432
     7  C   -0.406846
     8  O   -0.255647
     9  C   -0.220406
    10  C   -0.185711
    11  C   -0.025131
    12  C   -0.282903
    13  C   -0.393640
    14  H    0.132143
    15  H    0.216219
    16  H    0.175801
    17  H    0.185200
    18  H    0.233048
    19  H    0.191112
    20  H    0.181409
    21  H    0.180264
    22  H    0.164967
    23  H    0.222631
    24  H    0.136784
    25  H    0.211008
    26  H    0.138163
    27  H    0.252825
    28  H    0.192261
    29  H    0.184636
    30  H    0.171723
    31  H    0.165030
 Sum of Mulliken charges =  -0.00000

 Dipole moment (field-independent basis, Debye):
    X=             -1.2856    Y=              1.2644    Z=              1.5019  Tot=              2.3467
 Quadrupole moment (field-independent basis, Debye-Ang):
   XX=            -77.9080   YY=            -77.5394   ZZ=            -82.7682
   XY=              6.4853   XZ=              1.7233   YZ=              2.1321

  Exact polarizability: 174.202   2.063 161.602  -0.629   1.029 149.848
 Approx polarizability: 146.019   1.057 143.155  -0.057   0.997 143.009

 ******    1 imaginary frequencies (negative Signs) ******

                      1                      2                      3
                      A                      A                      A
 Frequencies --    -30.8657                67.7616                80.8974
 Red. masses --      3.6183                 4.3155                 3.2966
 Frc consts  --      0.0020                 0.0117                 0.0127
 IR Inten    --      1.0084                 1.3282                 0.5171

                      4                      5                      6
                      A                      A                      A
 Frequencies --    137.5059               185.6253               232.7218
 Red. masses --      3.3285                 2.7947                 2.9436
 Frc consts  --      0.0371                 0.0567                 0.0939
 IR Inten    --      3.7844                 1.3143                 6.0393

                      7                      8                      9
                      A                      A                      A
 Frequencies --    247.4799               284.7138               340.5977
 Red. masses --      2.2082                 2.2541                 2.8752
 Frc consts  --      0.0797                 0.1077                 0.1965
 IR Inten    --      2.9794                 1.2354                12.3411

                     10                     11                     12
                      A                      A                      A
 Frequencies --    366.6958               390.0007               430.0980
 Red. masses --      2.2958                 2.4704                 3.3331
 Frc consts  --      0.1819                 0.2214                 0.3633
 IR Inten    --     21.1214                 6.3270                 7.4934

                     13                     14                     15
                      A                      A                      A
 Frequencies --    452.0583               464.3310               483.7806
 Red. masses --      3.7247                 3.1326                 2.3935
 Frc consts  --      0.4485                 0.3979                 0.3301
 IR Inten    --      2.7275                 0.8269                 0.7410

                     16                     17                     18
                      A                      A                      A
 Frequencies --    532.4302               577.0518               613.8357
 Red. masses --      2.2558                 2.4068                 2.8261
 Frc consts  --      0.3768                 0.4722                 0.6274
 IR Inten    --      3.0888                10.4314                11.2605

                     19                     20                     21
                      A                      A                      A
 Frequencies --    722.4806               830.8890               833.9955
 Red. masses --      3.0039                 2.2992                 1.5726
 Frc consts  --      0.9238                 0.9352                 0.6445
 IR Inten    --      3.7174                 0.6193                 5.2139

                     22                     23                     24
                      A                      A                      A
 Frequencies --    841.6113               877.7831               893.7303
 Red. masses --      2.9867                 1.3919                 2.3626
 Frc consts  --      1.2464                 0.6319                 1.1118
 IR Inten    --      7.9178                11.2772                18.1206

                     25                     26                     27
                      A                      A                      A
 Frequencies --    898.2934               909.4325               933.5476
 Red. masses --      2.3849                 2.3957                 1.5964
 Frc consts  --      1.1339                 1.1674                 0.8197
 IR Inten    --      9.9282                24.2360                20.8255

                     28                     29                     30
                      A                      A                      A
 Frequencies --    943.4491               983.0033               996.1049
 Red. masses --      2.3554                 2.4078                 1.3917
 Frc consts  --      1.2352                 1.3708                 0.8136
 IR Inten    --     59.4881                44.7155                 9.8907

                     31                     32                     33
                      A                      A                      A
 Frequencies --   1033.4559              1047.3350              1056.8291
 Red. masses --      2.1977                 2.2403                 1.8014
 Frc consts  --      1.3830                 1.4479                 1.1854
 IR Inten    --     30.8387                54.2967                77.8134

                     34                     35                     36
                      A                      A                      A
 Frequencies --   1063.6119              1073.2722              1111.9580
 Red. masses --      1.5506                 2.1960                 4.3688
 Frc consts  --      1.0335                 1.4904                 3.1827
 IR Inten    --     49.5756                28.4769               272.2306

                     37                     38                     39
                      A                      A                      A
 Frequencies --   1150.8583              1155.2596              1163.1470
 Red. masses --      2.9337                 2.4857                 2.5526
 Frc consts  --      2.2893                 1.9546                 2.0347
 IR Inten    --     93.6772                43.0720                36.3983

                     40                     41                     42
                      A                      A                      A
 Frequencies --   1172.8873              1194.7866              1208.7193
 Red. masses --      3.5086                 2.2902                 1.4308
 Frc consts  --      2.8438                 1.9263                 1.2316
 IR Inten    --    187.5669                64.4869                 7.9039

                     43                     44                     45
                      A                      A                      A
 Frequencies --   1217.9688              1234.0566              1249.1626
 Red. masses --      1.5822                 1.6258                 1.4927
 Frc consts  --      1.3829                 1.4587                 1.3724
 IR Inten    --     30.5785                53.3721                29.1312

                     46                     47                     48
                      A                      A                      A
 Frequencies --   1290.0244              1304.5780              1321.1535
 Red. masses --      1.2195                 1.1967                 1.1584
 Frc consts  --      1.1957                 1.2000                 1.1913
 IR Inten    --     15.5319                25.3797                 5.6420

                     49                     50                     51
                      A                      A                      A
 Frequencies --   1329.3433              1345.8177              1353.8740
 Red. masses --      1.2999                 1.2724                 1.2467
 Frc consts  --      1.3534                 1.3578                 1.3464
 IR Inten    --      8.7563                 5.2832                20.7427

                     52                     53                     54
                      A                      A                      A
 Frequencies --   1362.4529              1382.5161              1386.1051
 Red. masses --      1.3327                 1.4224                 1.4596
 Frc consts  --      1.4575                 1.6018                 1.6522
 IR Inten    --      2.4805                 5.2164                 1.7595

                     55                     56                     57
                      A                      A                      A
 Frequencies --   1391.7827              1394.5465              1401.3989
 Red. masses --      1.4614                 1.6688                 1.2770
 Frc consts  --      1.6679                 1.9122                 1.4777
 IR Inten    --      9.4071                21.8671                17.4268

                     58                     59                     60
                      A                      A                      A
 Frequencies --   1406.7097              1421.6473              1432.9812
 Red. masses --      1.4009                 1.4195                 1.3723
 Frc consts  --      1.6333                 1.6903                 1.6603
 IR Inten    --     18.7036                 6.1956                17.8623

                     61                     62                     63
                      A                      A                      A
 Frequencies --   1447.0960              1476.4239              1480.3741
 Red. masses --      1.3835                 1.1069                 1.0899
 Frc consts  --      1.7069                 1.4216                 1.4072
 IR Inten    --      3.6459                 5.2136                 7.5019

                     64                     65                     66
                      A                      A                      A
 Frequencies --   1482.5350              1493.3904              1494.9280
 Red. masses --      1.0854                 1.1116                 1.1124
 Frc consts  --      1.4056                 1.4607                 1.4647
 IR Inten    --      8.5874                12.5224                11.6793

                     67                     68                     69
                      A                      A                      A
 Frequencies --   1500.6356              1508.8506              1513.0641
 Red. masses --      1.0895                 1.0939                 1.1023
 Frc consts  --      1.4456                 1.4673                 1.4868
 IR Inten    --      1.0807                 3.4570                 9.6921

                     70                     71                     72
                      A                      A                      A
 Frequencies --   3015.9885              3019.5744              3053.9929
 Red. masses --      1.0689                 1.0706                 1.0711
 Frc consts  --      5.7284                 5.7511                 5.8859
 IR Inten    --     37.0016                95.9001                15.3391

                     73                     74                     75
                      A                      A                      A
 Frequencies --   3057.6876              3063.9563              3064.8222
 Red. masses --      1.0683                 1.0770                 1.0643
 Frc consts  --      5.8850                 5.9573                 5.8899
 IR Inten    --     35.4013                13.6092                41.2769

                     76                     77                     78
                      A                      A                      A
 Frequencies --   3069.3228              3070.7018              3071.7233
 Red. masses --      1.0734                 1.0632                 1.0681
 Frc consts  --      5.9580                 5.9067                 5.9379
 IR Inten    --     36.7606                87.3790                13.8767

                     79                     80                     81
                      A                      A                      A
 Frequencies --   3082.3269              3114.4309              3117.6320
 Red. masses --      1.0680                 1.0978                 1.0973
 Frc consts  --      5.9785                 6.2739                 6.2839
 IR Inten    --     74.6446                37.1392                46.1549

                     82                     83                     84
                      A                      A                      A
 Frequencies --   3119.5978              3121.4998              3126.0875
 Red. masses --      1.1020                 1.1026                 1.0959
 Frc consts  --      6.3188                 6.3299                 6.3097
 IR Inten    --     65.2971                54.7405                42.6141

                     85                     86                     87
                      A                      A                      A
 Frequencies --   3131.0112              3134.7323              3136.6841
 Red. masses --      1.1031                 1.0947                 1.0993
 Frc consts  --      6.3714                 6.3380                 6.3725
 IR Inten    --     40.1960                44.8667                37.0998

 - Thermochemistry -
 -------------------
 Temperature   298.150 Kelvin.  Pressure   1.00000 Atm.
 Atom     1 has atomic number  6 and mass  12.00000

 Molecular mass:   186.12559 amu.
 Principal axes and moments of inertia in atomic units:
                           1         2         3
     Eigenvalues --   940.393804300.746784748.49868
           X            0.99995   0.01000  -0.00133
           Y           -0.00999   0.99987   0.01231
           Z            0.00145  -0.01230   0.99992
 This molecule is an asymmetric top.
 Rotational symmetry number  1.
 Warning -- assumption of classical behavior for rotation
           may cause significant error
 Rotational temperatures (Kelvin)      0.09210     0.02014     0.01824
 Rotational constants (GHZ):           1.91913     0.41963     0.38007
    1 imaginary frequencies ignored.
 Zero-point vibrational energy     736775.3 (Joules/Mol)
                                  176.09353 (Kcal/Mol)
 Warning -- explicit consideration of  17 degrees of freedom as
           vibrations may cause significant error
 Vibrational temperatures:     97.49   116.39   197.84   267.07   334.83
          (Kelvin)            356.07   409.64   490.04   527.59   561.12
                              618.82   650.41   668.07   696.05   766.05
                              830.25   883.17  1039.49  1195.46  1199.93
                             1210.89  1262.93  1285.88  1292.44  1308.47
                             1343.17  1357.41  1414.32  1433.17  1486.91
                             1506.88  1520.54  1530.30  1544.20  1599.86
                             1655.83  1662.16  1673.51  1687.52  1719.03
                             1739.08  1752.39  1775.53  1797.27  1856.06
                             1877.00  1900.85  1912.63  1936.33  1947.92
                             1960.27  1989.13  1994.30  2002.46  2006.44
                             2016.30  2023.94  2045.43  2061.74  2082.05
                             2124.24  2129.93  2133.04  2148.66  2150.87
                             2159.08  2170.90  2176.96  4339.33  4344.49
                             4394.01  4399.33  4408.35  4409.60  4416.07
                             4418.05  4419.52  4434.78  4480.97  4485.58
                             4488.41  4491.14  4497.74  4504.83  4510.18
                             4512.99

 Zero-point correction=                           0.280623 (Hartree/Particle)
 Thermal correction to Energy=                    0.291513
 Thermal correction to Enthalpy=                  0.292457
 Thermal correction to Gibbs Free Energy=         0.243907
 Sum of electronic and zero-point Energies=           -617.223674
 Sum of electronic and thermal Energies=              -617.212785
 Sum of electronic and thermal Enthalpies=            -617.211840
 Sum of electronic and thermal Free Energies=         -617.260390

                     E (Thermal)             CV                S
                      KCal/Mol        Cal/Mol-Kelvin    Cal/Mol-Kelvin
 Total                  182.927             44.721            102.181
 Electronic               0.000              0.000              0.000
 Translational            0.889              2.981             41.570
 Rotational               0.889              2.981             31.330
 Vibrational            181.149             38.760             29.281
 Vibration     1          0.598              1.970              4.217
 Vibration     2          0.600              1.962              3.869
 Vibration     3          0.614              1.916              2.838
 Vibration     4          0.632              1.859              2.271
 Vibration     5          0.653              1.791              1.858
 Vibration     6          0.661              1.767              1.748
 Vibration     7          0.683              1.702              1.505
 Vibration     8          0.720              1.594              1.209
 Vibration     9          0.740              1.541              1.094
 Vibration    10          0.758              1.492              1.000
 Vibration    11          0.791              1.405              0.858
 Vibration    12          0.811              1.356              0.790
 Vibration    13          0.822              1.329              0.754
 Vibration    14          0.840              1.286              0.700
 Vibration    15          0.887              1.178              0.582
 Vibration    16          0.934              1.081              0.491
 Vibration    17          0.973              1.003              0.426

 Optimization completed.
    -- Stationary point found.
 Normal termination of Gaussian 16 at Sun Nov  4 22:42:10 2018.
