 Gaussian 16, Revision A.03,
 Gaussian 16:  ES64L-G16RevA.03 25-Dec-2016

 ----------------------------------------------------------------------
 #M062X/6-311++G(2d,2p) opt=ModRedundant freq=noraman SCRF=(Solvent=Wat
 er)
 ----------------------------------------------------------------------

 ----------------------------
 L_a1-e4_D_PSI.inp_extract_25
 ----------------------------
 Symbolic Z-matrix:
 Charge =  0 Multiplicity = 1

 SCF Done:  E(RM062X) =  -617.502814335     A.U. after   12 cycles
 SCF Done:  E(RM062X) =  -617.504468673     A.U. after   11 cycles
 SCF Done:  E(RM062X) =  -617.504619338     A.U. after   10 cycles
 SCF Done:  E(RM062X) =  -617.504645725     A.U. after   10 cycles
 SCF Done:  E(RM062X) =  -617.504648862     A.U. after    8 cycles
 SCF Done:  E(RM062X) =  -617.504649318     A.U. after    7 cycles
 Optimization completed.
    -- Stationary point found.
 Normal termination of Gaussian 16 at Sun Nov  4 21:49:56 2018.

 ----------------------------------------------------------------------
 #N Geom=AllCheck Guess=TCheck SCRF=Check GenChk RM062X/6-311++G(2d,2p)
  Freq
 ----------------------------------------------------------------------

 Structure from the checkpoint file:  "L_a1-e4_D_PSI.inp_extract_25.chk"
 ----------------------------
 L_a1-e4_D_PSI.inp_extract_25
 ----------------------------
 Charge =  0 Multiplicity = 1

                         Standard orientation:
 ---------------------------------------------------------------------
 Center     Atomic      Atomic             Coordinates (Angstroms)
 Number     Number       Type             X           Y           Z
 ---------------------------------------------------------------------
      1          6           0       -2.280743    1.300761   -0.659685
      2          8           0       -1.628983    0.214899   -1.321681
      3          6           0       -3.151337   -0.268892    1.069563
      4          8           0        3.179727   -0.926421   -0.594292
      5          6           0       -1.233701   -0.822306   -0.451633
      6          6           0       -2.408230   -1.382326    0.332789
      7          6           0        3.020026    1.368124    0.193015
      8          8           0       -0.273267   -0.372900    0.474302
      9          6           0        1.601278    1.103132    0.697819
     10          6           0        3.822739    0.076594    0.182737
     11          6           0        0.980716   -0.028436   -0.101658
     12          6           0        1.901580   -1.244864   -0.076370
     13          6           0       -3.522884    0.834451    0.080342
     14          1           0       -1.580975    1.772885    0.035407
     15          1           0       -2.523945    2.015766   -1.442277
     16          1           0       -2.510728    0.143725    1.851302
     17          1           0       -4.040143   -0.669799    1.555430
     18          1           0       -0.798273   -1.578556   -1.108598
     19          1           0       -3.079241   -1.865475   -0.379576
     20          1           0       -2.041542   -2.144817    1.018706
     21          1           0        3.521768    2.103917    0.821510
     22          1           0        2.984675    1.770073   -0.821780
     23          1           0        1.630717    0.803692    1.749481
     24          1           0        0.980295    1.995890    0.624488
     25          1           0        4.805183    0.222827   -0.260772
     26          1           0        3.954657   -0.292646    1.207115
     27          1           0        0.836444    0.294394   -1.136336
     28          1           0        1.502049   -2.053284   -0.686690
     29          1           0        1.988387   -1.598008    0.958943
     30          1           0       -3.979033    1.683845    0.589644
     31          1           0       -4.246772    0.453525   -0.644145
 ---------------------------------------------------------------------

 SCF Done:  E(RM062X) =  -617.504649318     A.U. after    1 cycles

 The electronic state is 1-A.
 Alpha  occ. eigenvalues --  -19.63398 -19.63182 -19.63010 -10.63601 -10.58605
 Alpha  occ. eigenvalues --  -10.58086 -10.58031 -10.57773 -10.53322 -10.53266
 Alpha  occ. eigenvalues --  -10.53124 -10.53022 -10.52883  -1.20207  -1.16662
 Alpha  occ. eigenvalues --   -1.13483  -0.91148  -0.89810  -0.87157  -0.84552
 Alpha  occ. eigenvalues --   -0.74651  -0.74094  -0.72971  -0.70879  -0.65738
 Alpha  occ. eigenvalues --   -0.64206  -0.59917  -0.58687  -0.57472  -0.56253
 Alpha  occ. eigenvalues --   -0.53899  -0.53282  -0.52024  -0.51212  -0.49585
 Alpha  occ. eigenvalues --   -0.47964  -0.46989  -0.46087  -0.45551  -0.45341
 Alpha  occ. eigenvalues --   -0.44124  -0.42669  -0.40651  -0.40273  -0.38988
 Alpha  occ. eigenvalues --   -0.38510  -0.38268  -0.36367  -0.35858  -0.33422
 Alpha  occ. eigenvalues --   -0.31865
 Alpha virt. eigenvalues --   -0.00058   0.00762   0.00914   0.01010   0.02161
 Alpha virt. eigenvalues --    0.02472   0.02625   0.03358   0.03670   0.04357
 Alpha virt. eigenvalues --    0.04664   0.04768   0.05421   0.06052   0.06963

 Mulliken charges:
               1
     1  C   -0.130381
     2  O   -0.273304
     3  C   -0.316655
     4  O   -0.323321
     5  C   -0.080419
     6  C   -0.364210
     7  C   -0.358948
     8  O   -0.260524
     9  C   -0.182798
    10  C   -0.175714
    11  C   -0.291904
    12  C   -0.241266
    13  C   -0.355118
    14  H    0.118974
    15  H    0.203801
    16  H    0.180283
    17  H    0.182316
    18  H    0.251442
    19  H    0.188047
    20  H    0.178669
    21  H    0.186379
    22  H    0.162708
    23  H    0.207689
    24  H    0.139289
    25  H    0.207596
    26  H    0.138164
    27  H    0.293040
    28  H    0.190785
    29  H    0.190806
    30  H    0.168892
    31  H    0.165682
 Sum of Mulliken charges =  -0.00000

 Dipole moment (field-independent basis, Debye):
    X=             -0.9517    Y=              1.2526    Z=              1.8421  Tot=              2.4224
 Quadrupole moment (field-independent basis, Debye-Ang):
   XX=            -75.7070   YY=            -76.4404   ZZ=            -84.7972
   XY=              5.0378   XZ=              3.0287   YZ=             -0.3281

  Exact polarizability: 174.680   1.562 160.349  -0.274  -0.524 149.983
 Approx polarizability: 146.190   1.119 142.879   0.516   0.517 142.829

                      1                      2                      3
                      A                      A                      A
 Frequencies --     33.1263                55.0940                83.9347
 Red. masses --      3.6218                 3.9245                 3.4225
 Frc consts  --      0.0023                 0.0070                 0.0142
 IR Inten    --      0.3226                 0.9996                 0.5121

                      4                      5                      6
                      A                      A                      A
 Frequencies --    141.5905               179.9681               235.1716
 Red. masses --      3.8043                 2.7601                 2.7449
 Frc consts  --      0.0449                 0.0527                 0.0894
 IR Inten    --      4.7691                 0.0728                 8.3145

                      7                      8                      9
                      A                      A                      A
 Frequencies --    252.2661               288.5823               342.4977
 Red. masses --      2.1824                 2.2289                 2.6246
 Frc consts  --      0.0818                 0.1094                 0.1814
 IR Inten    --      2.3555                 3.2057                 8.8921

                     10                     11                     12
                      A                      A                      A
 Frequencies --    375.3110               389.0492               435.5156
 Red. masses --      2.5121                 2.7063                 3.2578
 Frc consts  --      0.2085                 0.2413                 0.3641
 IR Inten    --     29.2885                 4.6057                 8.8879

                     13                     14                     15
                      A                      A                      A
 Frequencies --    451.9169               469.9418               477.9239
 Red. masses --      3.6821                 3.5353                 2.1997
 Frc consts  --      0.4431                 0.4600                 0.2960
 IR Inten    --      2.4241                 0.5220                 0.5979

                     16                     17                     18
                      A                      A                      A
 Frequencies --    533.7899               580.3550               606.1019
 Red. masses --      2.2593                 2.6032                 2.4924
 Frc consts  --      0.3793                 0.5166                 0.5395
 IR Inten    --      2.5327                 9.4826                 7.7686

                     19                     20                     21
                      A                      A                      A
 Frequencies --    725.1608               833.4680               834.4611
 Red. masses --      3.0133                 2.1403                 1.6352
 Frc consts  --      0.9336                 0.8760                 0.6709
 IR Inten    --      2.1614                 0.3146                 3.8462

                     22                     23                     24
                      A                      A                      A
 Frequencies --    841.9633               878.7833               892.3871
 Red. masses --      3.0361                 1.4104                 2.2998
 Frc consts  --      1.2681                 0.6418                 1.0790
 IR Inten    --     10.0601                11.2094                13.4266

                     25                     26                     27
                      A                      A                      A
 Frequencies --    899.5224               907.1953               931.6233
 Red. masses --      2.3724                 2.4576                 1.6446
 Frc consts  --      1.1310                 1.1917                 0.8410
 IR Inten    --     21.1253                12.9581                24.1946

                     28                     29                     30
                      A                      A                      A
 Frequencies --    943.7179               987.4068               994.5867
 Red. masses --      2.2442                 2.4006                 1.3820
 Frc consts  --      1.1776                 1.3790                 0.8055
 IR Inten    --     44.3864                64.0942                 6.4309

                     31                     32                     33
                      A                      A                      A
 Frequencies --   1027.6309              1045.5408              1055.3578
 Red. masses --      2.2442                 2.3102                 1.7447
 Frc consts  --      1.3963                 1.4879                 1.1449
 IR Inten    --     37.5183                89.3466                52.4736

                     34                     35                     36
                      A                      A                      A
 Frequencies --   1063.9304              1071.9963              1114.2774
 Red. masses --      1.5041                 2.2973                 4.2897
 Frc consts  --      1.0031                 1.5554                 3.1381
 IR Inten    --     52.5923                16.8481               290.8292

                     37                     38                     39
                      A                      A                      A
 Frequencies --   1149.2882              1153.3043              1166.0271
 Red. masses --      3.0290                 2.5800                 2.4399
 Frc consts  --      2.3573                 2.0219                 1.9545
 IR Inten    --    125.5016                26.0998                25.6755

                     40                     41                     42
                      A                      A                      A
 Frequencies --   1167.9133              1193.4334              1209.7781
 Red. masses --      3.6707                 2.1421                 1.4298
 Frc consts  --      2.9500                 1.7976                 1.2329
 IR Inten    --    157.4155                41.4077                 8.0474

                     43                     44                     45
                      A                      A                      A
 Frequencies --   1221.5896              1234.0040              1252.5511
 Red. masses --      1.6467                 1.6281                 1.4711
 Frc consts  --      1.4478                 1.4607                 1.3598
 IR Inten    --     31.2439                63.1934                22.1677

                     46                     47                     48
                      A                      A                      A
 Frequencies --   1289.8057              1304.5746              1320.3432
 Red. masses --      1.2213                 1.1823                 1.1508
 Frc consts  --      1.1970                 1.1855                 1.1820
 IR Inten    --     16.8996                19.2913                 6.8158

                     49                     50                     51
                      A                      A                      A
 Frequencies --   1330.0683              1345.7914              1348.0859
 Red. masses --      1.2847                 1.2458                 1.2571
 Frc consts  --      1.3391                 1.3294                 1.3460
 IR Inten    --      7.3869                 8.8108                13.9651

                     52                     53                     54
                      A                      A                      A
 Frequencies --   1360.6042              1383.4408              1386.5425
 Red. masses --      1.3313                 1.4495                 1.4602
 Frc consts  --      1.4521                 1.6346                 1.6539
 IR Inten    --      3.0813                 2.5974                 1.8931

                     55                     56                     57
                      A                      A                      A
 Frequencies --   1392.9202              1398.9776              1403.5640
 Red. masses --      1.7070                 1.4241                 1.2801
 Frc consts  --      1.9514                 1.6422                 1.4857
 IR Inten    --     15.9978                13.4565                 1.9706

                     58                     59                     60
                      A                      A                      A
 Frequencies --   1406.1963              1422.9001              1432.7158
 Red. masses --      1.3878                 1.4792                 1.4202
 Frc consts  --      1.6168                 1.7645                 1.7176
 IR Inten    --     29.8020                 7.7033                17.2890

                     61                     62                     63
                      A                      A                      A
 Frequencies --   1439.0334              1476.7868              1481.2387
 Red. masses --      1.3494                 1.1057                 1.0917
 Frc consts  --      1.6463                 1.4208                 1.4112
 IR Inten    --      2.1908                 5.3227                 7.7105

                     64                     65                     66
                      A                      A                      A
 Frequencies --   1482.7674              1495.0123              1495.9872
 Red. masses --      1.0855                 1.1115                 1.1087
 Frc consts  --      1.4061                 1.4637                 1.4619
 IR Inten    --      8.4088                10.3636                13.6864

                     67                     68                     69
                      A                      A                      A
 Frequencies --   1501.6248              1509.5922              1514.9774
 Red. masses --      1.0884                 1.0940                 1.1022
 Frc consts  --      1.4459                 1.4689                 1.4905
 IR Inten    --      0.4012                 4.0085                10.0776

                     70                     71                     72
                      A                      A                      A
 Frequencies --   3018.8476              3022.5312              3055.3887
 Red. masses --      1.0687                 1.0704                 1.0679
 Frc consts  --      5.7383                 5.7613                 5.8739
 IR Inten    --     39.4037                92.0028                16.9029

                     73                     74                     75
                      A                      A                      A
 Frequencies --   3056.2906              3063.8812              3068.8065
 Red. masses --      1.0689                 1.0625                 1.0778
 Frc consts  --      5.8829                 5.8765                 5.9805
 IR Inten    --     43.9191                47.8211                 3.0478

                     76                     77                     78
                      A                      A                      A
 Frequencies --   3070.8350              3072.6229              3074.6523
 Red. masses --      1.0647                 1.0730                 1.0664
 Frc consts  --      5.9153                 5.9688                 5.9398
 IR Inten    --     24.2315                86.0661                 9.0918

                     79                     80                     81
                      A                      A                      A
 Frequencies --   3083.2303              3113.7348              3115.7678
 Red. masses --      1.0714                 1.0980                 1.0980
 Frc consts  --      6.0010                 6.2724                 6.2801
 IR Inten    --     74.0475                37.0232                46.1589

                     82                     83                     84
                      A                      A                      A
 Frequencies --   3120.0778              3121.5383              3125.6038
 Red. masses --      1.1024                 1.1027                 1.0956
 Frc consts  --      6.3228                 6.3305                 6.3063
 IR Inten    --     60.7956                53.8037                42.4292

                     85                     86                     87
                      A                      A                      A
 Frequencies --   3131.4616              3134.4956              3136.5166
 Red. masses --      1.1033                 1.0951                 1.0987
 Frc consts  --      6.3742                 6.3391                 6.3685
 IR Inten    --     41.1613                43.8032                44.5840

 - Thermochemistry -
 -------------------
 Temperature   298.150 Kelvin.  Pressure   1.00000 Atm.
 Atom     1 has atomic number  6 and mass  12.00000

 Molecular mass:   186.12559 amu.
 Principal axes and moments of inertia in atomic units:
                           1         2         3
     Eigenvalues --   931.162164402.114394711.48538
           X            0.99997   0.00716   0.00025
           Y           -0.00716   0.99996  -0.00598
           Z           -0.00030   0.00598   0.99998
 This molecule is an asymmetric top.
 Rotational symmetry number  1.
 Warning -- assumption of classical behavior for rotation
           may cause significant error
 Rotational temperatures (Kelvin)      0.09302     0.01968     0.01838
 Rotational constants (GHZ):           1.93816     0.40997     0.38305
 Zero-point vibrational energy     737132.1 (Joules/Mol)
                                  176.17881 (Kcal/Mol)
 Warning -- explicit consideration of  18 degrees of freedom as
           vibrations may cause significant error
 Vibrational temperatures:     47.66    79.27   120.76   203.72   258.93
          (Kelvin)            338.36   362.95   415.21   492.78   539.99
                              559.76   626.61   650.21   676.14   687.63
                              768.00   835.00   872.05  1043.34  1199.17
                             1200.60  1211.40  1264.37  1283.95  1294.21
                             1305.25  1340.40  1357.80  1420.66  1430.99
                             1478.53  1504.30  1518.42  1530.76  1542.36
                             1603.20  1653.57  1659.35  1677.65  1680.37
                             1717.08  1740.60  1757.59  1775.46  1802.14
                             1855.74  1876.99  1899.68  1913.67  1936.29
                             1939.59  1957.61  1990.46  1994.93  2004.10
                             2012.82  2019.42  2023.20  2047.24  2061.36
                             2070.45  2124.77  2131.17  2133.37  2150.99
                             2152.39  2160.50  2171.97  2179.71  4343.45
                             4348.75  4396.02  4397.32  4408.24  4415.33
                             4418.25  4420.82  4423.74  4436.08  4479.97
                             4482.89  4489.10  4491.20  4497.05  4505.47
                             4509.84  4512.75

 Zero-point correction=                           0.280759 (Hartree/Particle)
 Thermal correction to Energy=                    0.292512
 Thermal correction to Enthalpy=                  0.293456
 Thermal correction to Gibbs Free Energy=         0.242129
 Sum of electronic and zero-point Energies=           -617.223891
 Sum of electronic and thermal Energies=              -617.212138
 Sum of electronic and thermal Enthalpies=            -617.211194
 Sum of electronic and thermal Free Energies=         -617.262520

                     E (Thermal)             CV                S
                      KCal/Mol        Cal/Mol-Kelvin    Cal/Mol-Kelvin
 Total                  183.554             46.667            108.025
 Electronic               0.000              0.000              0.000
 Translational            0.889              2.981             41.570
 Rotational               0.889              2.981             31.335
 Vibrational            181.776             40.705             35.120
 Vibration     1          0.594              1.983              5.633
 Vibration     2          0.596              1.976              4.626
 Vibration     3          0.601              1.960              3.797
 Vibration     4          0.615              1.912              2.782
 Vibration     5          0.629              1.867              2.329
 Vibration     6          0.655              1.787              1.839
 Vibration     7          0.664              1.759              1.715
 Vibration     8          0.685              1.695              1.482
 Vibration     9          0.722              1.591              1.200
 Vibration    10          0.746              1.523              1.058
 Vibration    11          0.757              1.494              1.004
 Vibration    12          0.796              1.393              0.841
 Vibration    13          0.811              1.357              0.790
 Vibration    14          0.827              1.317              0.738
 Vibration    15          0.834              1.299              0.716
 Vibration    16          0.889              1.175              0.579
 Vibration    17          0.937              1.074              0.485
 Vibration    18          0.965              1.019              0.439

 Optimization completed.
    -- Stationary point found.
 Normal termination of Gaussian 16 at Sun Nov  4 22:41:53 2018.
