 Gaussian 16, Revision A.03,
 Gaussian 16:  ES64L-G16RevA.03 25-Dec-2016

 ----------------------------------------------------------------------
 #M062X/6-311++G(2d,2p) opt=ModRedundant freq=noraman SCRF=(Solvent=Wat
 er)
 ----------------------------------------------------------------------

 ----------------------------
 L_a1-e4_D_PSI.inp_extract_23
 ----------------------------
 Symbolic Z-matrix:
 Charge =  0 Multiplicity = 1

 SCF Done:  E(RM062X) =  -617.502618872     A.U. after   12 cycles
 SCF Done:  E(RM062X) =  -617.504247327     A.U. after   11 cycles
 SCF Done:  E(RM062X) =  -617.504354737     A.U. after    9 cycles
 SCF Done:  E(RM062X) =  -617.504363012     A.U. after    9 cycles
 SCF Done:  E(RM062X) =  -617.504363841     A.U. after    8 cycles
 SCF Done:  E(RM062X) =  -617.504363916     A.U. after    6 cycles
 Optimization completed.
    -- Stationary point found.
 Normal termination of Gaussian 16 at Sun Nov  4 21:48:50 2018.

 ----------------------------------------------------------------------
 #N Geom=AllCheck Guess=TCheck SCRF=Check GenChk RM062X/6-311++G(2d,2p)
  Freq
 ----------------------------------------------------------------------

 Structure from the checkpoint file:  "L_a1-e4_D_PSI.inp_extract_23.chk"
 ----------------------------
 L_a1-e4_D_PSI.inp_extract_23
 ----------------------------
 Charge =  0 Multiplicity = 1

                         Standard orientation:
 ---------------------------------------------------------------------
 Center     Atomic      Atomic             Coordinates (Angstroms)
 Number     Number       Type             X           Y           Z
 ---------------------------------------------------------------------
      1          6           0       -2.255938    1.387323   -0.431018
      2          8           0       -1.626927    0.413747   -1.267061
      3          6           0       -3.147888   -0.422277    1.027943
      4          8           0        3.255690   -0.948281   -0.457446
      5          6           0       -1.252326   -0.762280   -0.584700
      6          6           0       -2.432104   -1.415989    0.114554
      7          6           0        2.957326    1.394856    0.115605
      8          8           0       -0.265347   -0.496296    0.381280
      9          6           0        1.522532    1.113292    0.563967
     10          6           0        3.809162    0.144311    0.265829
     11          6           0        0.995601   -0.114766   -0.157668
     12          6           0        1.962890   -1.280561    0.012451
     13          6           0       -3.505088    0.830474    0.230091
     14          1           0       -1.546714    1.722851    0.330369
     15          1           0       -2.485123    2.227135   -1.082985
     16          1           0       -2.493009   -0.150407    1.858153
     17          1           0       -4.040035   -0.880058    1.453680
     18          1           0       -0.844324   -1.412618   -1.362338
     19          1           0       -3.118660   -1.765801   -0.658435
     20          1           0       -2.075698   -2.285820    0.664682
     21          1           0        3.392151    2.205010    0.701049
     22          1           0        2.965811    1.703384   -0.931998
     23          1           0        1.501185    0.913943    1.639286
     24          1           0        0.872963    1.967043    0.371547
     25          1           0        4.810881    0.296028   -0.130224
     26          1           0        3.891507   -0.130386    1.324594
     27          1           0        0.890976    0.111279   -1.222229
     28          1           0        1.624511   -2.145874   -0.555825
     29          1           0        2.003184   -1.552879    1.074768
     30          1           0       -3.944275    1.595407    0.871097
     31          1           0       -4.237652    0.582114   -0.541694
 ---------------------------------------------------------------------

 SCF Done:  E(RM062X) =  -617.504363916     A.U. after    1 cycles

 The electronic state is 1-A.
 Alpha  occ. eigenvalues --  -19.63350 -19.63158 -19.63029 -10.63622 -10.58648
 Alpha  occ. eigenvalues --  -10.58081 -10.58010 -10.57771 -10.53309 -10.53233
 Alpha  occ. eigenvalues --  -10.53127 -10.53032 -10.52884  -1.20194  -1.16653
 Alpha  occ. eigenvalues --   -1.13469  -0.91135  -0.89820  -0.87221  -0.84499
 Alpha  occ. eigenvalues --   -0.74468  -0.74167  -0.73034  -0.70963  -0.65742
 Alpha  occ. eigenvalues --   -0.64259  -0.59817  -0.58646  -0.57516  -0.56223
 Alpha  occ. eigenvalues --   -0.53995  -0.53246  -0.51841  -0.51199  -0.49587
 Alpha  occ. eigenvalues --   -0.48003  -0.47312  -0.46058  -0.45603  -0.45164
 Alpha  occ. eigenvalues --   -0.44114  -0.42433  -0.40656  -0.40347  -0.39132
 Alpha  occ. eigenvalues --   -0.38560  -0.38155  -0.36455  -0.35710  -0.33479
 Alpha  occ. eigenvalues --   -0.31824
 Alpha virt. eigenvalues --   -0.00062   0.00760   0.00868   0.01030   0.02159
 Alpha virt. eigenvalues --    0.02484   0.02640   0.03369   0.03594   0.04360
 Alpha virt. eigenvalues --    0.04731   0.04781   0.05488   0.05984   0.07112

 Mulliken charges:
               1
     1  C   -0.110400
     2  O   -0.277918
     3  C   -0.311215
     4  O   -0.328663
     5  C   -0.130140
     6  C   -0.364968
     7  C   -0.392042
     8  O   -0.256322
     9  C   -0.184535
    10  C   -0.172224
    11  C   -0.157615
    12  C   -0.263443
    13  C   -0.376198
    14  H    0.126929
    15  H    0.208065
    16  H    0.176725
    17  H    0.184139
    18  H    0.239757
    19  H    0.189570
    20  H    0.179693
    21  H    0.183169
    22  H    0.163353
    23  H    0.210893
    24  H    0.124835
    25  H    0.209917
    26  H    0.138108
    27  H    0.277898
    28  H    0.188907
    29  H    0.188704
    30  H    0.170265
    31  H    0.164757
 Sum of Mulliken charges =   0.00000

 Dipole moment (field-independent basis, Debye):
    X=             -1.1130    Y=              1.2431    Z=              1.6878  Tot=              2.3733
 Quadrupole moment (field-independent basis, Debye-Ang):
   XX=            -76.7969   YY=            -76.8913   ZZ=            -83.8773
   XY=              5.8424   XZ=              2.4216   YZ=              1.0379

  Exact polarizability: 174.481   1.753 161.171  -0.451   0.359 149.747
 Approx polarizability: 146.147   1.069 142.979   0.253   0.806 142.919

 ******    1 imaginary frequencies (negative Signs) ******

                      1                      2                      3
                      A                      A                      A
 Frequencies --    -20.0700                57.0539                80.9203
 Red. masses --      3.5684                 4.2148                 3.3955
 Frc consts  --      0.0008                 0.0081                 0.0131
 IR Inten    --      0.9511                 0.8672                 0.6389

                      4                      5                      6
                      A                      A                      A
 Frequencies --    135.0277               182.7078               232.7515
 Red. masses --      3.5197                 2.7721                 2.9232
 Frc consts  --      0.0378                 0.0545                 0.0933
 IR Inten    --      4.1076                 0.4822                 7.1766

                      7                      8                      9
                      A                      A                      A
 Frequencies --    249.0749               287.5234               340.5173
 Red. masses --      2.1379                 2.1973                 2.7073
 Frc consts  --      0.0781                 0.1070                 0.1850
 IR Inten    --      2.9088                 2.0091                10.0809

                     10                     11                     12
                      A                      A                      A
 Frequencies --    372.2803               390.6344               432.1902
 Red. masses --      2.4775                 2.6303                 3.2224
 Frc consts  --      0.2023                 0.2365                 0.3546
 IR Inten    --     26.7115                 4.6415                 8.4381

                     13                     14                     15
                      A                      A                      A
 Frequencies --    451.6512               467.2745               478.8209
 Red. masses --      3.6875                 3.1992                 2.3846
 Frc consts  --      0.4432                 0.4116                 0.3221
 IR Inten    --      2.3996                 0.6674                 0.6135

                     16                     17                     18
                      A                      A                      A
 Frequencies --    532.6082               578.9915               608.1937
 Red. masses --      2.2513                 2.5163                 2.6255
 Frc consts  --      0.3763                 0.4970                 0.5722
 IR Inten    --      2.9395                 9.8441                 9.6485

                     19                     20                     21
                      A                      A                      A
 Frequencies --    723.5470               831.9912               833.8977
 Red. masses --      2.9869                 2.1935                 1.6234
 Frc consts  --      0.9213                 0.8946                 0.6651
 IR Inten    --      2.8959                 0.3055                 4.6457

                     22                     23                     24
                      A                      A                      A
 Frequencies --    841.5798               877.2834               892.7601
 Red. masses --      3.0063                 1.4072                 2.3221
 Frc consts  --      1.2545                 0.6381                 1.0904
 IR Inten    --      9.1258                11.3572                16.2141

                     25                     26                     27
                      A                      A                      A
 Frequencies --    898.3174               907.9989               933.0936
 Red. masses --      2.3639                 2.4086                 1.6119
 Frc consts  --      1.1239                 1.1700                 0.8269
 IR Inten    --     13.9649                19.6081                23.3507

                     28                     29                     30
                      A                      A                      A
 Frequencies --    943.2247               984.8850               994.0152
 Red. masses --      2.3227                 2.3998                 1.3786
 Frc consts  --      1.2175                 1.3715                 0.8025
 IR Inten    --     53.4609                55.2853                 8.0600

                     31                     32                     33
                      A                      A                      A
 Frequencies --   1030.6273              1046.6672              1055.2038
 Red. masses --      2.2091                 2.2852                 1.7762
 Frc consts  --      1.3825                 1.4750                 1.1652
 IR Inten    --     32.2860                72.0403                67.0539

                     34                     35                     36
                      A                      A                      A
 Frequencies --   1063.5845              1072.4712              1113.1393
 Red. masses --      1.5187                 2.2604                 4.3261
 Frc consts  --      1.0122                 1.5318                 3.1582
 IR Inten    --     46.5155                30.1163               287.3332

                     37                     38                     39
                      A                      A                      A
 Frequencies --   1150.0971              1155.4978              1163.6794
 Red. masses --      3.1774                 2.4154                 2.5467
 Frc consts  --      2.4762                 1.9001                 2.0319
 IR Inten    --    133.4511                10.3001                40.5887

                     40                     41                     42
                      A                      A                      A
 Frequencies --   1169.7238              1194.6140              1208.6339
 Red. masses --      3.4598                 2.1773                 1.4432
 Frc consts  --      2.7891                 1.8307                 1.2421
 IR Inten    --    162.5390                51.4062                 6.5543

                     43                     44                     45
                      A                      A                      A
 Frequencies --   1219.5023              1233.7212              1249.9496
 Red. masses --      1.6245                 1.6262                 1.4871
 Frc consts  --      1.4234                 1.4583                 1.3689
 IR Inten    --     31.5464                56.7458                26.8558

                     46                     47                     48
                      A                      A                      A
 Frequencies --   1289.1693              1303.8499              1320.8620
 Red. masses --      1.2200                 1.1912                 1.1529
 Frc consts  --      1.1946                 1.1931                 1.1852
 IR Inten    --     16.2508                22.4274                 6.0970

                     49                     50                     51
                      A                      A                      A
 Frequencies --   1329.9345              1345.7157              1351.6974
 Red. masses --      1.2981                 1.2767                 1.2441
 Frc consts  --      1.3527                 1.3622                 1.3393
 IR Inten    --      8.3491                 6.1936                18.1853

                     52                     53                     54
                      A                      A                      A
 Frequencies --   1361.2766              1382.1400              1386.0719
 Red. masses --      1.3395                 1.4362                 1.4604
 Frc consts  --      1.4624                 1.6165                 1.6531
 IR Inten    --      2.8649                 3.6875                 2.3468

                     55                     56                     57
                      A                      A                      A
 Frequencies --   1392.9039              1395.0260              1402.0642
 Red. masses --      1.6689                 1.4424                 1.2603
 Frc consts  --      1.9077                 1.6539                 1.4597
 IR Inten    --      9.0880                20.3514                18.2324

                     58                     59                     60
                      A                      A                      A
 Frequencies --   1406.0637              1422.0303              1433.5989
 Red. masses --      1.4194                 1.4381                 1.3764
 Frc consts  --      1.6533                 1.7134                 1.6667
 IR Inten    --     18.7562                 6.3686                18.5909

                     61                     62                     63
                      A                      A                      A
 Frequencies --   1443.3165              1475.5489              1480.5199
 Red. masses --      1.3789                 1.1071                 1.0913
 Frc consts  --      1.6924                 1.4202                 1.4094
 IR Inten    --      1.7185                 5.6112                 7.5698

                     64                     65                     66
                      A                      A                      A
 Frequencies --   1481.9725              1493.8500              1494.7114
 Red. masses --      1.0867                 1.1112                 1.1132
 Frc consts  --      1.4062                 1.4610                 1.4653
 IR Inten    --      7.9963                12.2112                12.2628

                     67                     68                     69
                      A                      A                      A
 Frequencies --   1501.5665              1510.1808              1514.8369
 Red. masses --      1.0879                 1.0935                 1.1017
 Frc consts  --      1.4452                 1.4694                 1.4895
 IR Inten    --      0.9002                 3.8189                10.0521

                     70                     71                     72
                      A                      A                      A
 Frequencies --   3018.9642              3021.3254              3054.2063
 Red. masses --      1.0688                 1.0701                 1.0676
 Frc consts  --      5.7394                 5.7551                 5.8675
 IR Inten    --     29.3463               103.0234                20.0579

                     73                     74                     75
                      A                      A                      A
 Frequencies --   3057.8317              3064.6699              3065.9501
 Red. masses --      1.0686                 1.0632                 1.0799
 Frc consts  --      5.8869                 5.8837                 5.9806
 IR Inten    --     41.0954                48.8290                 6.4184

                     76                     77                     78
                      A                      A                      A
 Frequencies --   3070.2896              3072.0138              3073.1731
 Red. masses --      1.0641                 1.0668                 1.0746
 Frc consts  --      5.9103                 5.9317                 5.9797
 IR Inten    --     14.3939                83.3854                24.6781

                     79                     80                     81
                      A                      A                      A
 Frequencies --   3082.4790              3114.0314              3115.0446
 Red. masses --      1.0678                 1.0978                 1.0977
 Frc consts  --      5.9779                 6.2722                 6.2758
 IR Inten    --     69.2913                33.0701                49.1996

                     82                     83                     84
                      A                      A                      A
 Frequencies --   3119.4578              3120.6240              3124.7256
 Red. masses --      1.1024                 1.1029                 1.0962
 Frc consts  --      6.3204                 6.3278                 6.3059
 IR Inten    --     65.6552                54.0556                42.7375

                     85                     86                     87
                      A                      A                      A
 Frequencies --   3131.8249              3134.1761              3135.6438
 Red. masses --      1.1029                 1.0949                 1.0995
 Frc consts  --      6.3738                 6.3371                 6.3695
 IR Inten    --     40.3081                44.4525                41.3121

 - Thermochemistry -
 -------------------
 Temperature   298.150 Kelvin.  Pressure   1.00000 Atm.
 Atom     1 has atomic number  6 and mass  12.00000

 Molecular mass:   186.12559 amu.
 Principal axes and moments of inertia in atomic units:
                           1         2         3
     Eigenvalues --   934.088294359.329084751.33119
           X            0.99996   0.00868  -0.00052
           Y           -0.00868   0.99994   0.00596
           Z            0.00057  -0.00595   0.99998
 This molecule is an asymmetric top.
 Rotational symmetry number  1.
 Warning -- assumption of classical behavior for rotation
           may cause significant error
 Rotational temperatures (Kelvin)      0.09273     0.01987     0.01823
 Rotational constants (GHZ):           1.93209     0.41400     0.37984
    1 imaginary frequencies ignored.
 Zero-point vibrational energy     736679.9 (Joules/Mol)
                                  176.07073 (Kcal/Mol)
 Warning -- explicit consideration of  17 degrees of freedom as
           vibrations may cause significant error
 Vibrational temperatures:     82.09   116.43   194.27   262.88   334.88
          (Kelvin)            358.36   413.68   489.93   535.63   562.04
                              621.83   649.83   672.30   688.92   766.30
                              833.04   875.06  1041.02  1197.05  1199.79
                             1210.85  1262.22  1284.48  1292.48  1306.41
                             1342.51  1357.09  1417.03  1430.17  1482.84
                             1505.92  1518.20  1530.26  1543.05  1601.56
                             1654.73  1662.50  1674.28  1682.97  1718.78
                             1738.95  1754.59  1775.05  1798.40  1854.83
                             1875.95  1900.43  1913.48  1936.18  1944.79
                             1958.57  1988.59  1994.25  2004.08  2007.13
                             2017.26  2023.01  2045.98  2062.63  2076.61
                             2122.99  2130.14  2132.23  2149.32  2150.56
                             2160.42  2172.81  2179.51  4343.62  4347.01
                             4394.32  4399.54  4409.38  4411.22  4417.46
                             4419.94  4421.61  4435.00  4480.40  4481.85
                             4488.20  4489.88  4495.78  4506.00  4509.38
                             4511.49

 Zero-point correction=                           0.280587 (Hartree/Particle)
 Thermal correction to Energy=                    0.291498
 Thermal correction to Enthalpy=                  0.292442
 Thermal correction to Gibbs Free Energy=         0.243719
 Sum of electronic and zero-point Energies=           -617.223777
 Sum of electronic and thermal Energies=              -617.212866
 Sum of electronic and thermal Enthalpies=            -617.211922
 Sum of electronic and thermal Free Energies=         -617.260645

                     E (Thermal)             CV                S
                      KCal/Mol        Cal/Mol-Kelvin    Cal/Mol-Kelvin
 Total                  182.917             44.729            102.545
 Electronic               0.000              0.000              0.000
 Translational            0.889              2.981             41.570
 Rotational               0.889              2.981             31.337
 Vibrational            181.140             38.768             29.638
 Vibration     1          0.596              1.975              4.557
 Vibration     2          0.600              1.962              3.868
 Vibration     3          0.613              1.918              2.873
 Vibration     4          0.630              1.863              2.301
 Vibration     5          0.654              1.791              1.858
 Vibration     6          0.662              1.764              1.737
 Vibration     7          0.685              1.697              1.488
 Vibration     8          0.720              1.595              1.210
 Vibration     9          0.744              1.529              1.070
 Vibration    10          0.758              1.490              0.998
 Vibration    11          0.793              1.400              0.852
 Vibration    12          0.810              1.357              0.791
 Vibration    13          0.825              1.323              0.745
 Vibration    14          0.835              1.297              0.713
 Vibration    15          0.888              1.178              0.581
 Vibration    16          0.936              1.077              0.487
 Vibration    17          0.967              1.014              0.436

 Optimization completed.
    -- Stationary point found.
 Normal termination of Gaussian 16 at Sun Nov  4 22:42:27 2018.
