 Gaussian 16, Revision A.03,
 Gaussian 16:  ES64L-G16RevA.03 25-Dec-2016

 ----------------------------------------------------------------------
 #M062X/6-311++G(2d,2p) opt=ModRedundant freq=noraman SCRF=(Solvent=Wat
 er)
 ----------------------------------------------------------------------

 ---------------------------
 L_a1-e4_D_PSI.inp_extract_3
 ---------------------------
 Symbolic Z-matrix:
 Charge =  0 Multiplicity = 1

 SCF Done:  E(RM062X) =  -617.501295783     A.U. after   12 cycles
 SCF Done:  E(RM062X) =  -617.503221931     A.U. after   11 cycles
 SCF Done:  E(RM062X) =  -617.503351444     A.U. after   10 cycles
 SCF Done:  E(RM062X) =  -617.503415906     A.U. after    9 cycles
 SCF Done:  E(RM062X) =  -617.503419183     A.U. after    9 cycles
 SCF Done:  E(RM062X) =  -617.503420018     A.U. after    8 cycles
 Optimization completed.
    -- Stationary point found.
 Normal termination of Gaussian 16 at Sun Nov  4 21:50:33 2018.

 ----------------------------------------------------------------------
 #N Geom=AllCheck Guess=TCheck SCRF=Check GenChk RM062X/6-311++G(2d,2p)
  Freq
 ----------------------------------------------------------------------

 Structure from the checkpoint file:  "L_a1-e4_D_PSI.inp_extract_3.chk"
 ---------------------------
 L_a1-e4_D_PSI.inp_extract_3
 ---------------------------
 Charge =  0 Multiplicity = 1

                         Standard orientation:
 ---------------------------------------------------------------------
 Center     Atomic      Atomic             Coordinates (Angstroms)
 Number     Number       Type             X           Y           Z
 ---------------------------------------------------------------------
      1          6           0        2.141939   -0.604424    1.347502
      2          8           0        1.471494   -1.251828    0.263822
      3          6           0        3.214252    0.982886   -0.243829
      4          8           0       -2.845596   -1.266554   -0.019351
      5          6           0        1.192681   -0.394735   -0.819670
      6          6           0        2.445124    0.276432   -1.358564
      7          6           0       -3.223054    1.014821    0.707440
      8          8           0        0.292183    0.623535   -0.451236
      9          6           0       -1.851792    1.406346    0.161709
     10          6           0       -3.758536   -0.178018   -0.065759
     11          6           0       -0.926957    0.200139    0.148518
     12          6           0       -1.598575   -0.947328   -0.607783
     13          6           0        3.460744    0.003402    0.902165
     14          1           0        1.493353    0.171519    1.764998
     15          1           0        2.286656   -1.374324    2.101860
     16          1           0        2.631921    1.830709    0.121901
     17          1           0        4.154855    1.375465   -0.628352
     18          1           0        0.747704   -1.040967   -1.577229
     19          1           0        3.067816   -0.502330   -1.802409
     20          1           0        2.158623    0.966748   -2.151037
     21          1           0       -3.921032    1.848192    0.627731
     22          1           0       -3.145383    0.747483    1.763281
     23          1           0       -1.950442    1.767216   -0.865650
     24          1           0       -1.403861    2.206515    0.751143
     25          1           0       -4.691003   -0.545026    0.357454
     26          1           0       -3.935942    0.099363   -1.112023
     27          1           0       -0.736191   -0.137140    1.172912
     28          1           0       -1.002305   -1.855839   -0.563685
     29          1           0       -1.734923   -0.659278   -1.658896
     30          1           0        3.932571    0.499262    1.750888
     31          1           0        4.127990   -0.795921    0.570869
 ---------------------------------------------------------------------

 SCF Done:  E(RM062X) =  -617.503420018     A.U. after    1 cycles

 The electronic state is 1-A.
 Alpha  occ. eigenvalues --  -19.63396 -19.63257 -19.63199 -10.63586 -10.58795
 Alpha  occ. eigenvalues --  -10.58186 -10.58065 -10.57922 -10.53276 -10.53237
 Alpha  occ. eigenvalues --  -10.53133 -10.53021 -10.52923  -1.20281  -1.16721
 Alpha  occ. eigenvalues --   -1.13461  -0.91174  -0.89853  -0.87147  -0.84789
 Alpha  occ. eigenvalues --   -0.75252  -0.74165  -0.72758  -0.70686  -0.65732
 Alpha  occ. eigenvalues --   -0.64013  -0.60212  -0.59151  -0.57051  -0.55747
 Alpha  occ. eigenvalues --   -0.54342  -0.53160  -0.52582  -0.50848  -0.49845
 Alpha  occ. eigenvalues --   -0.48196  -0.47087  -0.45941  -0.45744  -0.44973
 Alpha  occ. eigenvalues --   -0.44123  -0.43003  -0.40704  -0.40238  -0.39454
 Alpha  occ. eigenvalues --   -0.38478  -0.37885  -0.36304  -0.35534  -0.33494
 Alpha  occ. eigenvalues --   -0.32116
 Alpha virt. eigenvalues --   -0.00080   0.00746   0.00851   0.01066   0.02162
 Alpha virt. eigenvalues --    0.02459   0.02641   0.03483   0.03492   0.04425
 Alpha virt. eigenvalues --    0.04584   0.04778   0.05673   0.05834   0.07069

 Mulliken charges:
               1
     1  C   -0.117927
     2  O   -0.268022
     3  C   -0.284524
     4  O   -0.329927
     5  C    0.003523
     6  C   -0.497053
     7  C   -0.373289
     8  O   -0.277592
     9  C   -0.331834
    10  C   -0.127143
    11  C   -0.049476
    12  C   -0.339956
    13  C   -0.409234
    14  H    0.136388
    15  H    0.201765
    16  H    0.172292
    17  H    0.183522
    18  H    0.244551
    19  H    0.195981
    20  H    0.185387
    21  H    0.181296
    22  H    0.163263
    23  H    0.208753
    24  H    0.166269
    25  H    0.208800
    26  H    0.133122
    27  H    0.231562
    28  H    0.239097
    29  H    0.212091
    30  H    0.172847
    31  H    0.165468
 Sum of Mulliken charges =  -0.00000

 Dipole moment (field-independent basis, Debye):
    X=              0.6899    Y=              2.2406    Z=             -0.1439  Tot=              2.3488
 Quadrupole moment (field-independent basis, Debye-Ang):
   XX=            -71.9630   YY=            -86.5580   ZZ=            -76.1150
   XY=             -5.3593   XZ=              1.2792   YZ=              2.0222

  Exact polarizability: 175.370  -1.140 152.679  -1.295  -0.017 156.845
 Approx polarizability: 146.183  -1.512 142.092  -0.945  -0.714 143.765

                      1                      2                      3
                      A                      A                      A
 Frequencies --     49.7251                64.5719               107.0175
 Red. masses --      3.6068                 3.8656                 3.4740
 Frc consts  --      0.0053                 0.0095                 0.0234
 IR Inten    --      0.8353                 0.8424                 0.8834

                      4                      5                      6
                      A                      A                      A
 Frequencies --    150.8058               192.2708               228.1428
 Red. masses --      3.2937                 3.2620                 2.7725
 Frc consts  --      0.0441                 0.0710                 0.0850
 IR Inten    --      0.1275                 3.9431                11.8322

                      7                      8                      9
                      A                      A                      A
 Frequencies --    256.2491               278.9184               352.2459
 Red. masses --      2.1265                 2.5794                 2.9672
 Frc consts  --      0.0823                 0.1182                 0.2169
 IR Inten    --      2.0403                 3.4913                14.3509

                     10                     11                     12
                      A                      A                      A
 Frequencies --    364.1060               376.1691               440.7808
 Red. masses --      2.2027                 2.2903                 3.5179
 Frc consts  --      0.1721                 0.1909                 0.4027
 IR Inten    --      1.4752                23.7784                 7.2781

                     13                     14                     15
                      A                      A                      A
 Frequencies --    445.9612               463.5726               485.4067
 Red. masses --      3.3660                 3.2843                 2.3313
 Frc consts  --      0.3944                 0.4158                 0.3236
 IR Inten    --      3.6605                 0.3878                 2.3194

                     16                     17                     18
                      A                      A                      A
 Frequencies --    535.3086               577.2475               628.7295
 Red. masses --      2.1413                 2.2627                 3.2918
 Frc consts  --      0.3615                 0.4442                 0.7667
 IR Inten    --      1.4359                 7.6252                 3.7332

                     19                     20                     21
                      A                      A                      A
 Frequencies --    723.4815               831.2023               833.0016
 Red. masses --      3.0924                 1.6551                 2.0979
 Frc consts  --      0.9537                 0.6737                 0.8577
 IR Inten    --      2.3398                 1.9291                 0.1587

                     22                     23                     24
                      A                      A                      A
 Frequencies --    840.6113               878.5869               891.7790
 Red. masses --      3.1702                 1.3888                 2.3468
 Frc consts  --      1.3199                 0.6316                 1.0996
 IR Inten    --      8.6155                 9.9321                 5.0900

                     25                     26                     27
                      A                      A                      A
 Frequencies --    899.2686               915.1871               929.0957
 Red. masses --      2.4809                 2.4917                 1.7332
 Frc consts  --      1.1820                 1.2296                 0.8815
 IR Inten    --     35.4564                10.0272                19.1897

                     28                     29                     30
                      A                      A                      A
 Frequencies --    946.3077               991.7602               994.8817
 Red. masses --      2.1025                 1.5173                 2.2517
 Frc consts  --      1.1093                 0.8793                 1.3131
 IR Inten    --     21.5764                45.0921                39.3340

                     31                     32                     33
                      A                      A                      A
 Frequencies --   1018.9184              1043.1934              1056.5789
 Red. masses --      2.1050                 2.3297                 1.7240
 Frc consts  --      1.2876                 1.4937                 1.1340
 IR Inten    --     40.2815                81.4547                27.0233

                     34                     35                     36
                      A                      A                      A
 Frequencies --   1064.8412              1073.4583              1114.9580
 Red. masses --      1.5489                 2.2057                 4.3430
 Frc consts  --      1.0348                 1.4975                 3.1810
 IR Inten    --     63.9097                19.3052               245.3873

                     37                     38                     39
                      A                      A                      A
 Frequencies --   1143.8651              1152.7167              1171.2205
 Red. masses --      2.3784                 2.9818                 2.4606
 Frc consts  --      1.8335                 2.3344                 1.9887
 IR Inten    --     23.3436               152.8841                17.4267

                     40                     41                     42
                      A                      A                      A
 Frequencies --   1183.8999              1187.5158              1212.2186
 Red. masses --      3.7935                 2.2990                 1.3857
 Frc consts  --      3.1327                 1.9102                 1.1997
 IR Inten    --    188.6712                39.1683                14.8126

                     43                     44                     45
                      A                      A                      A
 Frequencies --   1223.0239              1235.4655              1254.4824
 Red. masses --      1.6276                 1.6217                 1.5114
 Frc consts  --      1.4344                 1.4584                 1.4014
 IR Inten    --     24.6007                57.4561                19.3295

                     46                     47                     48
                      A                      A                      A
 Frequencies --   1289.4600              1304.7797              1322.2473
 Red. masses --      1.2157                 1.1660                 1.1472
 Frc consts  --      1.1910                 1.1695                 1.1817
 IR Inten    --     20.3731                13.8225                 7.2583

                     49                     50                     51
                      A                      A                      A
 Frequencies --   1330.5032              1340.6713              1356.9034
 Red. masses --      1.2795                 1.2203                 1.2777
 Frc consts  --      1.3345                 1.2923                 1.3861
 IR Inten    --      8.6762                 0.5317                10.3619

                     52                     53                     54
                      A                      A                      A
 Frequencies --   1365.9300              1384.8875              1386.4291
 Red. masses --      1.3165                 1.4432                 1.4430
 Frc consts  --      1.4472                 1.6308                 1.6343
 IR Inten    --      1.6097                 3.6706                 6.6287

                     55                     56                     57
                      A                      A                      A
 Frequencies --   1391.2816              1398.8447              1403.3899
 Red. masses --      1.6470                 1.2419                 1.5701
 Frc consts  --      1.8783                 1.4318                 1.8219
 IR Inten    --     12.8352                14.6388                 9.4451

                     58                     59                     60
                      A                      A                      A
 Frequencies --   1412.2899              1423.0893              1433.5326
 Red. masses --      1.3928                 1.4079                 1.4271
 Frc consts  --      1.6368                 1.6799                 1.7279
 IR Inten    --      5.7824                12.5720                 4.5412

                     61                     62                     63
                      A                      A                      A
 Frequencies --   1437.4777              1475.0046              1481.7907
 Red. masses --      1.3765                 1.1037                 1.0933
 Frc consts  --      1.6758                 1.4148                 1.4143
 IR Inten    --     18.8646                 5.5834                 8.0126

                     64                     65                     66
                      A                      A                      A
 Frequencies --   1481.9848              1494.9263              1497.4801
 Red. masses --      1.0871                 1.1097                 1.1147
 Frc consts  --      1.4067                 1.4612                 1.4728
 IR Inten    --      7.7071                14.4039                 8.9045

                     67                     68                     69
                      A                      A                      A
 Frequencies --   1503.1679              1508.3647              1516.5607
 Red. masses --      1.0834                 1.0934                 1.0973
 Frc consts  --      1.4423                 1.4657                 1.4869
 IR Inten    --      2.2415                 3.3503                 6.6859

                     70                     71                     72
                      A                      A                      A
 Frequencies --   3009.4466              3020.8839              3043.0963
 Red. masses --      1.0700                 1.0705                 1.0819
 Frc consts  --      5.7095                 5.7556                 5.9030
 IR Inten    --     42.3452                78.5953                48.2209

                     73                     74                     75
                      A                      A                      A
 Frequencies --   3051.1514              3061.3021              3063.7456
 Red. masses --      1.0690                 1.0649                 1.0630
 Frc consts  --      5.8632                 5.8797                 5.8787
 IR Inten    --     46.8330                46.4237                40.2360

                     76                     77                     78
                      A                      A                      A
 Frequencies --   3071.4682              3073.7485              3078.6237
 Red. masses --      1.0621                 1.0630                 1.0639
 Frc consts  --      5.9035                 5.9174                 5.9408
 IR Inten    --     40.6246                31.7167                11.5624

                     79                     80                     81
                      A                      A                      A
 Frequencies --   3095.1039              3114.0842              3114.5718
 Red. masses --      1.0844                 1.0981                 1.0994
 Frc consts  --      6.1204                 6.2743                 6.2835
 IR Inten    --     82.3550                29.5330                46.5935

                     82                     83                     84
                      A                      A                      A
 Frequencies --   3120.1525              3122.1167              3131.0294
 Red. masses --      1.1023                 1.1025                 1.1032
 Frc consts  --      6.3227                 6.3318                 6.3721
 IR Inten    --     61.3814                53.4466                38.5619

                     85                     86                     87
                      A                      A                      A
 Frequencies --   3134.4160              3136.1723              3141.8976
 Red. masses --      1.0947                 1.0979                 1.0938
 Frc consts  --      6.3364                 6.3623                 6.3619
 IR Inten    --     48.5022                43.4516                28.9093

 - Thermochemistry -
 -------------------
 Temperature   298.150 Kelvin.  Pressure   1.00000 Atm.
 Atom     1 has atomic number  6 and mass  12.00000

 Molecular mass:   186.12559 amu.
 Principal axes and moments of inertia in atomic units:
                           1         2         3
     Eigenvalues --   930.210904345.486144487.17291
           X            0.99999  -0.00494   0.00072
           Y            0.00490   0.99880   0.04876
           Z           -0.00096  -0.04876   0.99881
 This molecule is an asymmetric top.
 Rotational symmetry number  1.
 Warning -- assumption of classical behavior for rotation
           may cause significant error
 Rotational temperatures (Kelvin)      0.09311     0.01993     0.01930
 Rotational constants (GHZ):           1.94014     0.41531     0.40220
 Zero-point vibrational energy     737693.7 (Joules/Mol)
                                  176.31303 (Kcal/Mol)
 Warning -- explicit consideration of  17 degrees of freedom as
           vibrations may cause significant error
 Vibrational temperatures:     71.54    92.90   153.97   216.98   276.63
          (Kelvin)            328.25   368.69   401.30   506.80   523.87
                              541.22   634.19   641.64   666.98   698.39
                              770.19   830.53   904.60  1040.93  1195.91
                             1198.50  1209.45  1264.09  1283.07  1293.85
                             1316.75  1336.76  1361.53  1426.92  1431.41
                             1466.00  1500.92  1520.18  1532.07  1544.47
                             1604.18  1645.77  1658.50  1685.13  1703.37
                             1708.57  1744.11  1759.66  1777.56  1804.92
                             1855.25  1877.29  1902.42  1914.30  1928.93
                             1952.28  1965.27  1992.54  1994.76  2001.74
                             2012.63  2019.17  2031.97  2047.51  2062.53
                             2068.21  2122.20  2131.97  2132.25  2150.87
                             2154.54  2162.72  2170.20  2181.99  4329.92
                             4346.38  4378.34  4389.93  4404.53  4408.05
                             4419.16  4422.44  4429.45  4453.16  4480.47
                             4481.17  4489.20  4492.03  4504.85  4509.73
                             4512.25  4520.49

 Zero-point correction=                           0.280973 (Hartree/Particle)
 Thermal correction to Energy=                    0.292609
 Thermal correction to Enthalpy=                  0.293554
 Thermal correction to Gibbs Free Energy=         0.243081
 Sum of electronic and zero-point Energies=           -617.222447
 Sum of electronic and thermal Energies=              -617.210811
 Sum of electronic and thermal Enthalpies=            -617.209866
 Sum of electronic and thermal Free Energies=         -617.260339

                     E (Thermal)             CV                S
                      KCal/Mol        Cal/Mol-Kelvin    Cal/Mol-Kelvin
 Total                  183.615             46.609            106.229
 Electronic               0.000              0.000              0.000
 Translational            0.889              2.981             41.570
 Rotational               0.889              2.981             31.273
 Vibrational            181.838             40.647             33.386
 Vibration     1          0.595              1.978              4.828
 Vibration     2          0.597              1.971              4.312
 Vibration     3          0.606              1.944              3.322
 Vibration     4          0.618              1.902              2.662
 Vibration     5          0.634              1.851              2.206
 Vibration     6          0.651              1.798              1.894
 Vibration     7          0.666              1.752              1.687
 Vibration     8          0.679              1.713              1.540
 Vibration     9          0.729              1.571              1.156
 Vibration    10          0.738              1.546              1.105
 Vibration    11          0.747              1.521              1.055
 Vibration    12          0.801              1.381              0.824
 Vibration    13          0.805              1.370              0.808
 Vibration    14          0.821              1.331              0.756
 Vibration    15          0.841              1.282              0.696
 Vibration    16          0.890              1.172              0.575
 Vibration    17          0.934              1.080              0.490

 Optimization completed.
    -- Stationary point found.
 Normal termination of Gaussian 16 at Sun Nov  4 22:43:42 2018.
