 Gaussian 16, Revision A.03,
 Gaussian 16:  ES64L-G16RevA.03 25-Dec-2016

 ----------------------------------------------------------------------
 #M062X/6-311++G(2d,2p) opt=ModRedundant freq=noraman SCRF=(Solvent=Wat
 er)
 ----------------------------------------------------------------------

 ---------------------------
 L_a1-e4_D_PSI.inp_extract_8
 ---------------------------
 Symbolic Z-matrix:
 Charge =  0 Multiplicity = 1

 SCF Done:  E(RM062X) =  -617.497907984     A.U. after   12 cycles
 SCF Done:  E(RM062X) =  -617.499344239     A.U. after   11 cycles
 SCF Done:  E(RM062X) =  -617.499834425     A.U. after   11 cycles
 SCF Done:  E(RM062X) =  -617.500041111     A.U. after   10 cycles
 SCF Done:  E(RM062X) =  -617.500074695     A.U. after    9 cycles
 SCF Done:  E(RM062X) =  -617.500076530     A.U. after    8 cycles
 SCF Done:  E(RM062X) =  -617.500076666     A.U. after    7 cycles
 Optimization completed.
    -- Stationary point found.
 Normal termination of Gaussian 16 at Sun Nov  4 21:54:57 2018.

 ----------------------------------------------------------------------
 #N Geom=AllCheck Guess=TCheck SCRF=Check GenChk RM062X/6-311++G(2d,2p)
  Freq
 ----------------------------------------------------------------------

 Structure from the checkpoint file:  "L_a1-e4_D_PSI.inp_extract_8.chk"
 ---------------------------
 L_a1-e4_D_PSI.inp_extract_8
 ---------------------------
 Charge =  0 Multiplicity = 1

                         Standard orientation:
 ---------------------------------------------------------------------
 Center     Atomic      Atomic             Coordinates (Angstroms)
 Number     Number       Type             X           Y           Z
 ---------------------------------------------------------------------
      1          6           0       -2.245705   -1.396219   -0.324924
      2          8           0       -1.385386   -0.977476    0.735427
      3          6           0       -3.248712    0.885470   -0.409362
      4          8           0        2.714429   -1.386790   -0.170146
      5          6           0       -1.040739    0.389265    0.674994
      6          6           0       -2.278009    1.273603    0.705233
      7          6           0        3.416506    0.932161   -0.240891
      8          8           0       -0.330877    0.699722   -0.496815
      9          6           0        1.961012    1.373707   -0.093623
     10          6           0        3.607313   -0.435192    0.393491
     11          6           0        1.028425    0.276231   -0.591401
     12          6           0        1.357587   -1.059233    0.080165
     13          6           0       -3.546692   -0.610813   -0.325900
     14          1           0       -1.727632   -1.273922   -1.280503
     15          1           0       -2.417409   -2.457569   -0.160072
     16          1           0       -2.802181    1.114770   -1.378732
     17          1           0       -4.165774    1.467933   -0.327780
     18          1           0       -0.418426    0.558873    1.556464
     19          1           0       -2.756989    1.135858    1.676263
     20          1           0       -1.969794    2.315235    0.626837
     21          1           0        4.090062    1.652448    0.223684
     22          1           0        3.679347    0.868152   -1.298982
     23          1           0        1.741377    1.572476    0.960283
     24          1           0        1.765791    2.290462   -0.649257
     25          1           0        4.610774   -0.818783    0.221817
     26          1           0        3.437737   -0.377679    1.475792
     27          1           0        1.201815    0.135561   -1.661284
     28          1           0        0.753999   -1.863294   -0.332083
     29          1           0        1.183811   -1.012571    1.160611
     30          1           0       -4.164728   -0.937600   -1.162701
     31          1           0       -4.093021   -0.827882    0.595216
 ---------------------------------------------------------------------

 SCF Done:  E(RM062X) =  -617.500076666     A.U. after    1 cycles

 The electronic state is 1-A.
 Alpha  occ. eigenvalues --  -19.63247 -19.63098 -19.62887 -10.63596 -10.58883
 Alpha  occ. eigenvalues --  -10.58105 -10.58033 -10.57760 -10.53237 -10.53148
 Alpha  occ. eigenvalues --  -10.53051 -10.52976 -10.52863  -1.19995  -1.16560
 Alpha  occ. eigenvalues --   -1.13392  -0.90927  -0.89684  -0.87145  -0.84704
 Alpha  occ. eigenvalues --   -0.74798  -0.74239  -0.72892  -0.70910  -0.66482
 Alpha  occ. eigenvalues --   -0.62948  -0.60323  -0.58756  -0.56443  -0.55792
 Alpha  occ. eigenvalues --   -0.54253  -0.53473  -0.51673  -0.50453  -0.50214
 Alpha  occ. eigenvalues --   -0.49124  -0.46623  -0.45964  -0.45424  -0.44790
 Alpha  occ. eigenvalues --   -0.43884  -0.42449  -0.41454  -0.40311  -0.39567
 Alpha  occ. eigenvalues --   -0.38491  -0.37940  -0.36665  -0.34181  -0.33290
 Alpha  occ. eigenvalues --   -0.32046
 Alpha virt. eigenvalues --   -0.00054   0.00720   0.00796   0.01145   0.02146
 Alpha virt. eigenvalues --    0.02506   0.02599   0.03335   0.03650   0.04332
 Alpha virt. eigenvalues --    0.04595   0.04831   0.05548   0.05939   0.07074

 Mulliken charges:
               1
     1  C   -0.056452
     2  O   -0.260052
     3  C   -0.265887
     4  O   -0.364075
     5  C   -0.075928
     6  C   -0.478426
     7  C   -0.378593
     8  O   -0.287008
     9  C   -0.050680
    10  C   -0.157532
    11  C   -0.364527
    12  C   -0.237073
    13  C   -0.455831
    14  H    0.141929
    15  H    0.207738
    16  H    0.174638
    17  H    0.187647
    18  H    0.270816
    19  H    0.194633
    20  H    0.180552
    21  H    0.171302
    22  H    0.169912
    23  H    0.168057
    24  H    0.179840
    25  H    0.216575
    26  H    0.130164
    27  H    0.254248
    28  H    0.223771
    29  H    0.225839
    30  H    0.173265
    31  H    0.161139
 Sum of Mulliken charges =  -0.00000

 Dipole moment (field-independent basis, Debye):
    X=             -0.5345    Y=              2.0545    Z=              0.5701  Tot=              2.1981
 Quadrupole moment (field-independent basis, Debye-Ang):
   XX=            -72.3157   YY=            -83.3647   ZZ=            -80.0929
   XY=              6.3727   XZ=              3.2508   YZ=              2.7026

  Exact polarizability: 177.490   2.565 158.120   0.242   1.810 149.450
 Approx polarizability: 147.590   1.658 141.892  -0.643   1.137 142.938

                      1                      2                      3
                      A                      A                      A
 Frequencies --     48.6423                57.8760               104.9923
 Red. masses --      3.3536                 4.1976                 3.4506
 Frc consts  --      0.0047                 0.0083                 0.0224
 IR Inten    --      1.1197                 0.9964                 1.6341

                      4                      5                      6
                      A                      A                      A
 Frequencies --    132.1898               205.3967               232.3851
 Red. masses --      3.3205                 2.9040                 3.4361
 Frc consts  --      0.0342                 0.0722                 0.1093
 IR Inten    --      0.5963                 2.3603                 0.8539

                      7                      8                      9
                      A                      A                      A
 Frequencies --    258.0506               278.5479               325.1471
 Red. masses --      2.0017                 2.4832                 2.8850
 Frc consts  --      0.0785                 0.1135                 0.1797
 IR Inten    --      3.8121                 4.4347                14.1750

                     10                     11                     12
                      A                      A                      A
 Frequencies --    373.5987               391.8461               430.8214
 Red. masses --      2.3647                 2.2566                 3.0736
 Frc consts  --      0.1945                 0.2041                 0.3361
 IR Inten    --     17.4574                 8.4400                 9.1097

                     13                     14                     15
                      A                      A                      A
 Frequencies --    440.4030               462.6410               493.6602
 Red. masses --      3.3759                 3.3029                 2.7434
 Frc consts  --      0.3858                 0.4165                 0.3939
 IR Inten    --      3.6592                 0.2502                 2.6090

                     16                     17                     18
                      A                      A                      A
 Frequencies --    540.4610               576.2659               641.8696
 Red. masses --      2.0458                 2.2038                 4.5836
 Frc consts  --      0.3521                 0.4312                 1.1126
 IR Inten    --      0.8490                16.3669                 2.3509

                     19                     20                     21
                      A                      A                      A
 Frequencies --    709.2677               820.6697               836.4454
 Red. masses --      2.7959                 2.0530                 1.6211
 Frc consts  --      0.8287                 0.8147                 0.6682
 IR Inten    --      1.1565                 1.5688                 2.0891

                     22                     23                     24
                      A                      A                      A
 Frequencies --    841.9114               873.0251               889.2187
 Red. masses --      3.2987                 1.4068                 2.3277
 Frc consts  --      1.3776                 0.6317                 1.0844
 IR Inten    --      8.8355                10.8165                 5.5525

                     25                     26                     27
                      A                      A                      A
 Frequencies --    896.4945               908.4851               927.4814
 Red. masses --      2.5003                 2.3597                 1.7966
 Frc consts  --      1.1840                 1.1475                 0.9106
 IR Inten    --     29.8494                26.8383                26.0470

                     28                     29                     30
                      A                      A                      A
 Frequencies --    944.5404               978.8670               999.7200
 Red. masses --      2.2648                 1.6506                 1.9365
 Frc consts  --      1.1905                 0.9319                 1.1403
 IR Inten    --     44.1358                41.6920                26.4141

                     31                     32                     33
                      A                      A                      A
 Frequencies --   1008.6891              1042.8531              1052.2912
 Red. masses --      2.0241                 2.2429                 1.7041
 Frc consts  --      1.2134                 1.4372                 1.1118
 IR Inten    --     43.0761                67.2980                27.9992

                     34                     35                     36
                      A                      A                      A
 Frequencies --   1064.0899              1072.7876              1121.4772
 Red. masses --      1.5336                 2.2485                 4.5762
 Frc consts  --      1.0231                 1.5246                 3.3910
 IR Inten    --     73.1142                25.8179               341.6725

                     37                     38                     39
                      A                      A                      A
 Frequencies --   1145.2428              1150.9409              1163.8340
 Red. masses --      3.1704                 2.2847                 2.5677
 Frc consts  --      2.4500                 1.7832                 2.0492
 IR Inten    --     67.5113                71.5680                32.8335

                     40                     41                     42
                      A                      A                      A
 Frequencies --   1174.0832              1191.2079              1210.9968
 Red. masses --      3.9225                 2.5034                 1.4367
 Frc consts  --      3.1858                 2.0930                 1.2414
 IR Inten    --    132.6871                41.1975                13.8582

                     43                     44                     45
                      A                      A                      A
 Frequencies --   1213.0759              1234.2078              1251.0993
 Red. masses --      1.4259                 1.6423                 1.5112
 Frc consts  --      1.2362                 1.4739                 1.3937
 IR Inten    --     34.0757                49.1101                16.5415

                     46                     47                     48
                      A                      A                      A
 Frequencies --   1288.0118              1309.3340              1319.2486
 Red. masses --      1.2089                 1.1686                 1.1516
 Frc consts  --      1.1817                 1.1804                 1.1809
 IR Inten    --     11.8094                17.8106                 8.1300

                     49                     50                     51
                      A                      A                      A
 Frequencies --   1336.8694              1346.8706              1360.0561
 Red. masses --      1.3058                 1.2936                 1.3507
 Frc consts  --      1.3750                 1.3826                 1.4720
 IR Inten    --      7.6287                 4.1066                 7.2227

                     52                     53                     54
                      A                      A                      A
 Frequencies --   1368.8106              1384.8932              1386.4283
 Red. masses --      1.2637                 1.4519                 1.4225
 Frc consts  --      1.3950                 1.6406                 1.6110
 IR Inten    --     16.7636                 0.3442                 0.6666

                     55                     56                     57
                      A                      A                      A
 Frequencies --   1392.2379              1398.5485              1400.3208
 Red. masses --      1.5777                 1.2992                 1.3800
 Frc consts  --      1.8018                 1.4972                 1.5944
 IR Inten    --      7.1467                14.7297                29.1922

                     58                     59                     60
                      A                      A                      A
 Frequencies --   1412.5707              1415.0792              1428.9665
 Red. masses --      1.3909                 1.4122                 1.3541
 Frc consts  --      1.6352                 1.6661                 1.6291
 IR Inten    --     19.2928                 4.7313                11.9185

                     61                     62                     63
                      A                      A                      A
 Frequencies --   1437.2028              1476.6667              1482.4157
 Red. masses --      1.3824                 1.1041                 1.0893
 Frc consts  --      1.6824                 1.4185                 1.4104
 IR Inten    --     12.4379                 4.8902                12.0199

                     64                     65                     66
                      A                      A                      A
 Frequencies --   1482.6555              1490.9790              1495.3603
 Red. masses --      1.0870                 1.1013                 1.1080
 Frc consts  --      1.4079                 1.4424                 1.4597
 IR Inten    --      1.2999                11.9284                14.6754

                     67                     68                     69
                      A                      A                      A
 Frequencies --   1497.6472              1509.8322              1511.5597
 Red. masses --      1.1020                 1.0930                 1.1009
 Frc consts  --      1.4563                 1.4679                 1.4820
 IR Inten    --      1.6947                 3.6261                 7.4142

                     70                     71                     72
                      A                      A                      A
 Frequencies --   3019.7464              3039.6184              3048.2053
 Red. masses --      1.0704                 1.0699                 1.0685
 Frc consts  --      5.7509                 5.8243                 5.8497
 IR Inten    --     69.6177                33.3025                 9.1987

                     73                     74                     75
                      A                      A                      A
 Frequencies --   3053.4186              3063.2954              3067.0733
 Red. masses --      1.0689                 1.0626                 1.0798
 Frc consts  --      5.8717                 5.8751                 5.9847
 IR Inten    --     55.0927                50.3497                39.8209

                     76                     77                     78
                      A                      A                      A
 Frequencies --   3069.6855              3072.9820              3075.1494
 Red. masses --      1.0636                 1.0697                 1.0669
 Frc consts  --      5.9047                 5.9514                 5.9443
 IR Inten    --     67.1266                33.4803                 9.6136

                     79                     80                     81
                      A                      A                      A
 Frequencies --   3084.2624              3113.2748              3116.2133
 Red. masses --      1.0734                 1.0980                 1.0967
 Frc consts  --      6.0163                 6.2704                 6.2748
 IR Inten    --     77.7946                38.6065                36.4079

                     82                     83                     84
                      A                      A                      A
 Frequencies --   3119.6397              3120.1333              3131.4222
 Red. masses --      1.1026                 1.1025                 1.1035
 Frc consts  --      6.3222                 6.3239                 6.3753
 IR Inten    --     64.1120                57.7122                40.0597

                     85                     86                     87
                      A                      A                      A
 Frequencies --   3132.2695              3133.8726              3152.3682
 Red. masses --      1.0948                 1.0986                 1.0965
 Frc consts  --      6.3283                 6.3570                 6.4199
 IR Inten    --     48.8359                45.2222                32.5813

 - Thermochemistry -
 -------------------
 Temperature   298.150 Kelvin.  Pressure   1.00000 Atm.
 Atom     1 has atomic number  6 and mass  12.00000

 Molecular mass:   186.12559 amu.
 Principal axes and moments of inertia in atomic units:
                           1         2         3
     Eigenvalues --   910.910184111.806544618.49104
           X            0.99995   0.00812   0.00548
           Y           -0.00822   0.99980   0.01828
           Z           -0.00533  -0.01832   0.99982
 This molecule is an asymmetric top.
 Rotational symmetry number  1.
 Warning -- assumption of classical behavior for rotation
           may cause significant error
 Rotational temperatures (Kelvin)      0.09509     0.02106     0.01875
 Rotational constants (GHZ):           1.98125     0.43892     0.39076
 Zero-point vibrational energy     737276.4 (Joules/Mol)
                                  176.21330 (Kcal/Mol)
 Warning -- explicit consideration of  17 degrees of freedom as
           vibrations may cause significant error
 Vibrational temperatures:     69.99    83.27   151.06   190.19   295.52
          (Kelvin)            334.35   371.28   400.77   467.81   537.53
                              563.78   619.86   633.64   665.64   710.27
                              777.60   829.12   923.51  1020.48  1180.76
                             1203.46  1211.32  1256.09  1279.39  1289.86
                             1307.11  1334.44  1358.98  1408.37  1438.37
                             1451.28  1500.43  1514.01  1530.99  1543.50
                             1613.56  1647.75  1655.95  1674.50  1689.24
                             1713.88  1742.35  1745.35  1775.75  1800.05
                             1853.16  1883.84  1898.10  1923.46  1937.85
                             1956.82  1969.41  1992.55  1994.76  2003.12
                             2012.20  2014.75  2032.37  2035.98  2055.96
                             2067.81  2124.59  2132.87  2133.21  2145.19
                             2151.49  2154.78  2172.31  2174.80  4344.74
                             4373.33  4385.69  4393.19  4407.40  4412.83
                             4416.59  4421.34  4424.45  4437.57  4479.31
                             4483.54  4488.47  4489.18  4505.42  4506.64
                             4508.94  4535.55

 Zero-point correction=                           0.280814 (Hartree/Particle)
 Thermal correction to Energy=                    0.292494
 Thermal correction to Enthalpy=                  0.293438
 Thermal correction to Gibbs Free Energy=         0.242771
 Sum of electronic and zero-point Energies=           -617.219263
 Sum of electronic and thermal Energies=              -617.207583
 Sum of electronic and thermal Enthalpies=            -617.206638
 Sum of electronic and thermal Free Energies=         -617.257306

                     E (Thermal)             CV                S
                      KCal/Mol        Cal/Mol-Kelvin    Cal/Mol-Kelvin
 Total                  183.543             46.693            106.638
 Electronic               0.000              0.000              0.000
 Translational            0.889              2.981             41.570
 Rotational               0.889              2.981             31.226
 Vibrational            181.765             40.732             33.842
 Vibration     1          0.595              1.978              4.872
 Vibration     2          0.596              1.974              4.528
 Vibration     3          0.605              1.945              3.359
 Vibration     4          0.612              1.921              2.914
 Vibration     5          0.640              1.832              2.084
 Vibration     6          0.653              1.791              1.860
 Vibration     7          0.667              1.749              1.675
 Vibration     8          0.679              1.713              1.543
 Vibration     9          0.709              1.625              1.284
 Vibration    10          0.745              1.526              1.065
 Vibration    11          0.759              1.488              0.993
 Vibration    12          0.792              1.403              0.856
 Vibration    13          0.800              1.382              0.825
 Vibration    14          0.820              1.333              0.758
 Vibration    15          0.849              1.264              0.674
 Vibration    16          0.896              1.161              0.564
 Vibration    17          0.933              1.083              0.492

 Optimization completed.
    -- Stationary point found.
 Normal termination of Gaussian 16 at Sun Nov  4 22:53:13 2018.
