 Gaussian 16, Revision A.03,
 Gaussian 16:  ES64L-G16RevA.03 25-Dec-2016

 ----------------------------------------------------------------------
 #M062X/6-311++G(2d,2p) opt=ModRedundant freq=noraman SCRF=(Solvent=Wat
 er)
 ----------------------------------------------------------------------

 ----------------------------
 L_a1-e4_D_PSI.inp_extract_21
 ----------------------------
 Symbolic Z-matrix:
 Charge =  0 Multiplicity = 1

 SCF Done:  E(RM062X) =  -617.502632314     A.U. after   12 cycles
 SCF Done:  E(RM062X) =  -617.504423681     A.U. after   11 cycles
 SCF Done:  E(RM062X) =  -617.504568471     A.U. after   10 cycles
 SCF Done:  E(RM062X) =  -617.504626806     A.U. after   10 cycles
 SCF Done:  E(RM062X) =  -617.504629519     A.U. after    8 cycles
 SCF Done:  E(RM062X) =  -617.504629850     A.U. after    6 cycles
 Optimization completed.
    -- Stationary point found.
 Normal termination of Gaussian 16 at Sun Nov  4 21:49:37 2018.

 ----------------------------------------------------------------------
 #N Geom=AllCheck Guess=TCheck SCRF=Check GenChk RM062X/6-311++G(2d,2p)
  Freq
 ----------------------------------------------------------------------

 Structure from the checkpoint file:  "L_a1-e4_D_PSI.inp_extract_21.chk"
 ----------------------------
 L_a1-e4_D_PSI.inp_extract_21
 ----------------------------
 Charge =  0 Multiplicity = 1

                         Standard orientation:
 ---------------------------------------------------------------------
 Center     Atomic      Atomic             Coordinates (Angstroms)
 Number     Number       Type             X           Y           Z
 ---------------------------------------------------------------------
      1          6           0       -2.118457    1.453293   -0.032639
      2          8           0       -1.575702    0.692222   -1.113692
      3          6           0       -3.132998   -0.601247    0.934276
      4          8           0        3.348810   -0.966815   -0.141822
      5          6           0       -1.290123   -0.648158   -0.778241
      6          6           0       -2.506986   -1.372053   -0.226194
      7          6           0        2.829814    1.402883   -0.092289
      8          8           0       -0.260204   -0.732828    0.173290
      9          6           0        1.368289    1.088021    0.230150
     10          6           0        3.730487    0.287040    0.410132
     11          6           0        1.015451   -0.300317   -0.284806
     12          6           0        2.028718   -1.319389    0.223295
     13          6           0       -3.401729    0.837120    0.496517
     14          1           0       -1.379713    1.521328    0.770702
     15          1           0       -2.283978    2.451085   -0.433019
     16          1           0       -2.449707   -0.600482    1.786015
     17          1           0       -4.052487   -1.089295    1.255354
     18          1           0       -0.957393   -1.099166   -1.715973
     19          1           0       -3.229502   -1.461043   -1.039497
     20          1           0       -2.211103   -2.377724    0.069166
     21          1           0        3.128624    2.347502    0.362391
     22          1           0        2.960154    1.501316   -1.172244
     23          1           0        1.217174    1.096038    1.313718
     24          1           0        0.701500    1.830475   -0.206001
     25          1           0        4.765736    0.446877    0.116797
     26          1           0        3.683946    0.227994    1.504503
     27          1           0        1.033704   -0.301446   -1.379595
     28          1           0        1.825532   -2.299067   -0.204982
     29          1           0        1.942171   -1.388614    1.315274
     30          1           0       -3.774157    1.439637    1.325462
     31          1           0       -4.158536    0.850787   -0.291485
 ---------------------------------------------------------------------

 SCF Done:  E(RM062X) =  -617.504629850     A.U. after    1 cycles

 The electronic state is 1-A.
 Alpha  occ. eigenvalues --  -19.63387 -19.63140 -19.63035 -10.63606 -10.58774
 Alpha  occ. eigenvalues --  -10.58042 -10.58036 -10.57767 -10.53237 -10.53112
 Alpha  occ. eigenvalues --  -10.53049 -10.53034 -10.52887  -1.20182  -1.16663
 Alpha  occ. eigenvalues --   -1.13502  -0.91095  -0.89776  -0.87361  -0.84408
 Alpha  occ. eigenvalues --   -0.74595  -0.74008  -0.73005  -0.71020  -0.65801
 Alpha  occ. eigenvalues --   -0.64172  -0.59825  -0.58776  -0.57378  -0.55976
 Alpha  occ. eigenvalues --   -0.54230  -0.53198  -0.51825  -0.50818  -0.49555
 Alpha  occ. eigenvalues --   -0.48393  -0.47682  -0.46037  -0.45461  -0.44923
 Alpha  occ. eigenvalues --   -0.44034  -0.41793  -0.41001  -0.40534  -0.39677
 Alpha  occ. eigenvalues --   -0.38429  -0.37860  -0.36445  -0.35383  -0.33539
 Alpha  occ. eigenvalues --   -0.31877
 Alpha virt. eigenvalues --   -0.00059   0.00748   0.00817   0.01065   0.02177
 Alpha virt. eigenvalues --    0.02521   0.02651   0.03378   0.03583   0.04365
 Alpha virt. eigenvalues --    0.04784   0.04933   0.05638   0.05701   0.07266

 Mulliken charges:
               1
     1  C   -0.103741
     2  O   -0.289761
     3  C   -0.299874
     4  O   -0.334229
     5  C   -0.156937
     6  C   -0.365536
     7  C   -0.418321
     8  O   -0.270552
     9  C   -0.286887
    10  C   -0.208016
    11  C    0.050335
    12  C   -0.293369
    13  C   -0.408275
    14  H    0.135611
    15  H    0.218034
    16  H    0.175102
    17  H    0.186663
    18  H    0.236315
    19  H    0.190390
    20  H    0.183357
    21  H    0.176144
    22  H    0.168293
    23  H    0.235289
    24  H    0.172769
    25  H    0.212173
    26  H    0.138054
    27  H    0.237068
    28  H    0.196254
    29  H    0.182768
    30  H    0.172995
    31  H    0.167887
 Sum of Mulliken charges =   0.00000

 Dipole moment (field-independent basis, Debye):
    X=             -1.4138    Y=              1.3293    Z=              1.3045  Tot=              2.3383
 Quadrupole moment (field-independent basis, Debye-Ang):
   XX=            -78.9430   YY=            -78.3509   ZZ=            -81.6275
   XY=              6.9503   XZ=              0.9282   YZ=              2.9515

  Exact polarizability: 173.766   2.469 161.572  -0.815   1.584 150.288
 Approx polarizability: 145.789   1.000 143.345  -0.392   1.120 143.079

                      1                      2                      3
                      A                      A                      A
 Frequencies --     29.2188                78.1156                84.0289
 Red. masses --      3.5026                 4.2525                 3.3048
 Frc consts  --      0.0018                 0.0153                 0.0137
 IR Inten    --      0.6848                 1.5761                 0.6285

                      4                      5                      6
                      A                      A                      A
 Frequencies --    142.0024               192.0938               238.5176
 Red. masses --      3.3186                 2.7962                 2.6773
 Frc consts  --      0.0394                 0.0608                 0.0897
 IR Inten    --      3.7511                 2.5351                 5.6022

                      7                      8                      9
                      A                      A                      A
 Frequencies --    252.0279               273.2870               337.6941
 Red. masses --      2.5038                 2.3979                 2.9068
 Frc consts  --      0.0937                 0.1055                 0.1953
 IR Inten    --      2.3664                 1.2857                13.6864

                     10                     11                     12
                      A                      A                      A
 Frequencies --    363.5670               387.7299               430.5210
 Red. masses --      2.1536                 2.3645                 3.4616
 Frc consts  --      0.1677                 0.2094                 0.3780
 IR Inten    --     15.1486                 9.5983                 6.6165

                     13                     14                     15
                      A                      A                      A
 Frequencies --    452.7695               464.2289               488.6557
 Red. masses --      3.7581                 3.1785                 2.3376
 Frc consts  --      0.4539                 0.4036                 0.3289
 IR Inten    --      2.9839                 1.0529                 0.9628

                     16                     17                     18
                      A                      A                      A
 Frequencies --    533.4130               575.9616               622.1621
 Red. masses --      2.2520                 2.3280                 3.0356
 Frc consts  --      0.3775                 0.4550                 0.6923
 IR Inten    --      3.0416                11.1411                12.6466

                     19                     20                     21
                      A                      A                      A
 Frequencies --    721.6778               829.9614               833.7551
 Red. masses --      2.9925                 2.3489                 1.5265
 Frc consts  --      0.9183                 0.9533                 0.6252
 IR Inten    --      4.2339                 1.0888                 4.4595

                     22                     23                     24
                      A                      A                      A
 Frequencies --    841.5611               880.1850               894.6563
 Red. masses --      3.0886                 1.3828                 2.3969
 Frc consts  --      1.2888                 0.6312                 1.1304
 IR Inten    --      7.0354                11.6746                20.5467

                     25                     26                     27
                      A                      A                      A
 Frequencies --    898.8916               910.1893               934.2756
 Red. masses --      2.4014                 2.4057                 1.5976
 Frc consts  --      1.1432                 1.1742                 0.8216
 IR Inten    --      7.1327                26.5267                19.7986

                     28                     29                     30
                      A                      A                      A
 Frequencies --    943.9182               982.3048               996.0815
 Red. masses --      2.3099                 2.4142                 1.4037
 Frc consts  --      1.2126                 1.3725                 0.8206
 IR Inten    --     58.2404                38.0272                10.3920

                     31                     32                     33
                      A                      A                      A
 Frequencies --   1034.9177              1046.8191              1058.5165
 Red. masses --      2.1967                 2.2473                 1.7726
 Frc consts  --      1.3862                 1.4510                 1.1702
 IR Inten    --     29.9172                56.9660                67.0274

                     34                     35                     36
                      A                      A                      A
 Frequencies --   1064.2651              1073.0289              1112.1423
 Red. masses --      1.5817                 2.1699                 4.4117
 Frc consts  --      1.0556                 1.4720                 3.2150
 IR Inten    --     57.2808                25.9776               252.7684

                     37                     38                     39
                      A                      A                      A
 Frequencies --   1148.8348              1154.5283              1165.4549
 Red. masses --      2.4482                 2.8391                 2.4783
 Frc consts  --      1.9038                 2.2297                 1.9833
 IR Inten    --     16.3916               114.5361                24.5439

                     40                     41                     42
                      A                      A                      A
 Frequencies --   1175.6022              1195.3636              1209.9161
 Red. masses --      3.5898                 2.4749                 1.4498
 Frc consts  --      2.9231                 2.0835                 1.2505
 IR Inten    --    212.6707                76.6240                10.0627

                     43                     44                     45
                      A                      A                      A
 Frequencies --   1216.7585              1235.7359              1248.0933
 Red. masses --      1.5135                 1.6165                 1.4950
 Frc consts  --      1.3202                 1.4544                 1.3721
 IR Inten    --     32.8947                50.2531                27.4651

                     46                     47                     48
                      A                      A                      A
 Frequencies --   1290.8880              1304.7888              1323.4336
 Red. masses --      1.2173                 1.1950                 1.1571
 Frc consts  --      1.1951                 1.1987                 1.1941
 IR Inten    --     16.8152                25.3573                 6.3545

                     49                     50                     51
                      A                      A                      A
 Frequencies --   1329.4716              1345.2066              1351.4374
 Red. masses --      1.2980                 1.2701                 1.2171
 Frc consts  --      1.3517                 1.3541                 1.3097
 IR Inten    --      9.1614                 3.0159                27.5136

                     52                     53                     54
                      A                      A                      A
 Frequencies --   1363.6178              1383.2316              1386.8723
 Red. masses --      1.3370                 1.4220                 1.4682
 Frc consts  --      1.4648                 1.6031                 1.6638
 IR Inten    --      3.2217                 7.1700                 0.6388

                     55                     56                     57
                      A                      A                      A
 Frequencies --   1390.5152              1396.1375              1401.9407
 Red. masses --      1.4775                 1.7017                 1.2934
 Frc consts  --      1.6831                 1.9543                 1.4978
 IR Inten    --     11.7696                18.7985                21.6532

                     58                     59                     60
                      A                      A                      A
 Frequencies --   1406.3614              1420.7455              1433.3177
 Red. masses --      1.3853                 1.4058                 1.3791
 Frc consts  --      1.6144                 1.6719                 1.6693
 IR Inten    --     12.9234                 6.9986                16.5159

                     61                     62                     63
                      A                      A                      A
 Frequencies --   1447.7459              1475.5603              1480.6456
 Red. masses --      1.3880                 1.1063                 1.0905
 Frc consts  --      1.7141                 1.4191                 1.4086
 IR Inten    --      4.2901                 5.3537                 7.8862

                     64                     65                     66
                      A                      A                      A
 Frequencies --   1482.9019              1495.2057              1496.1057
 Red. masses --      1.0874                 1.1069                 1.1110
 Frc consts  --      1.4089                 1.4580                 1.4652
 IR Inten    --      8.5507                13.5061                 8.5982

                     67                     68                     69
                      A                      A                      A
 Frequencies --   1500.3211              1511.0218              1513.5407
 Red. masses --      1.0891                 1.0932                 1.1019
 Frc consts  --      1.4444                 1.4705                 1.4872
 IR Inten    --      1.2506                 3.1958                 9.3363

                     70                     71                     72
                      A                      A                      A
 Frequencies --   3016.3359              3019.7639              3046.5033
 Red. masses --      1.0692                 1.0705                 1.0794
 Frc consts  --      5.7317                 5.7517                 5.9024
 IR Inten    --     41.0924                88.4994                10.8518

                     73                     74                     75
                      A                      A                      A
 Frequencies --   3058.0294              3058.6719              3064.7655
 Red. masses --      1.0704                 1.0685                 1.0623
 Frc consts  --      5.8977                 5.8898                 5.8789
 IR Inten    --     26.1690                58.4365                49.2320

                     76                     77                     78
                      A                      A                      A
 Frequencies --   3068.2502              3070.0659              3071.6135
 Red. masses --      1.0781                 1.0622                 1.0649
 Frc consts  --      5.9801                 5.8986                 5.9198
 IR Inten    --     39.5713                60.1540                18.8391

                     79                     80                     81
                      A                      A                      A
 Frequencies --   3082.3991              3113.2074              3119.0023
 Red. masses --      1.0678                 1.0981                 1.1003
 Frc consts  --      5.9774                 6.2706                 6.3063
 IR Inten    --     70.3337                38.6876                77.4625

                     82                     83                     84
                      A                      A                      A
 Frequencies --   3119.1311              3127.0728              3130.6243
 Red. masses --      1.1019                 1.0981                 1.0951
 Frc consts  --      6.3164                 6.3266                 6.3237
 IR Inten    --     35.0257                51.9723                44.2413

                     85                     86                     87
                      A                      A                      A
 Frequencies --   3131.8532              3134.5843              3134.8915
 Red. masses --      1.1027                 1.0966                 1.0986
 Frc consts  --      6.3727                 6.3480                 6.3611
 IR Inten    --     39.7027                39.1882                30.5598

 - Thermochemistry -
 -------------------
 Temperature   298.150 Kelvin.  Pressure   1.00000 Atm.
 Atom     1 has atomic number  6 and mass  12.00000

 Molecular mass:   186.12559 amu.
 Principal axes and moments of inertia in atomic units:
                           1         2         3
     Eigenvalues --   951.485724227.664024700.62424
           X            0.99993   0.01123  -0.00226
           Y           -0.01119   0.99980   0.01654
           Z            0.00244  -0.01652   0.99986
 This molecule is an asymmetric top.
 Rotational symmetry number  1.
 Warning -- assumption of classical behavior for rotation
           may cause significant error
 Rotational temperatures (Kelvin)      0.09103     0.02049     0.01843
 Rotational constants (GHZ):           1.89676     0.42689     0.38394
 Zero-point vibrational energy     737205.9 (Joules/Mol)
                                  176.19645 (Kcal/Mol)
 Warning -- explicit consideration of  17 degrees of freedom as
           vibrations may cause significant error
 Vibrational temperatures:     42.04   112.39   120.90   204.31   276.38
          (Kelvin)            343.17   362.61   393.20   485.87   523.09
                              557.86   619.42   651.43   667.92   703.07
                              767.46   828.68   895.15  1038.33  1194.13
                             1199.59  1210.82  1266.39  1287.21  1293.30
                             1309.56  1344.21  1358.09  1413.32  1433.14
                             1489.02  1506.14  1522.97  1531.24  1543.85
                             1600.12  1652.92  1661.11  1676.83  1691.43
                             1719.86  1740.80  1750.64  1777.95  1795.73
                             1857.30  1877.30  1904.13  1912.81  1935.45
                             1944.42  1961.94  1990.16  1995.40  2000.64
                             2008.73  2017.08  2023.44  2044.14  2062.22
                             2082.98  2123.00  2130.32  2133.57  2151.27
                             2152.56  2158.63  2174.02  2177.65  4339.83
                             4344.77  4383.24  4399.82  4400.75  4409.51
                             4414.53  4417.14  4419.37  4434.88  4479.21
                             4487.55  4487.73  4499.16  4504.27  4506.04
                             4509.97  4510.41

 Zero-point correction=                           0.280787 (Hartree/Particle)
 Thermal correction to Energy=                    0.292509
 Thermal correction to Enthalpy=                  0.293453
 Thermal correction to Gibbs Free Energy=         0.242346
 Sum of electronic and zero-point Energies=           -617.223843
 Sum of electronic and thermal Energies=              -617.212121
 Sum of electronic and thermal Enthalpies=            -617.211177
 Sum of electronic and thermal Free Energies=         -617.262284

                     E (Thermal)             CV                S
                      KCal/Mol        Cal/Mol-Kelvin    Cal/Mol-Kelvin
 Total                  183.552             46.662            107.565
 Electronic               0.000              0.000              0.000
 Translational            0.889              2.981             41.570
 Rotational               0.889              2.981             31.314
 Vibrational            181.775             40.701             34.681
 Vibration     1          0.593              1.984              5.882
 Vibration     2          0.599              1.964              3.938
 Vibration     3          0.601              1.960              3.794
 Vibration     4          0.615              1.911              2.777
 Vibration     5          0.634              1.851              2.208
 Vibration     6          0.656              1.782              1.814
 Vibration     7          0.664              1.759              1.716
 Vibration     8          0.676              1.723              1.575
 Vibration     9          0.718              1.600              1.223
 Vibration    10          0.737              1.547              1.107
 Vibration    11          0.756              1.496              1.009
 Vibration    12          0.792              1.404              0.857
 Vibration    13          0.811              1.355              0.787
 Vibration    14          0.822              1.329              0.754
 Vibration    15          0.845              1.275              0.687
 Vibration    16          0.888              1.176              0.580
 Vibration    17          0.932              1.083              0.493

 Optimization completed.
    -- Stationary point found.
 Normal termination of Gaussian 16 at Sun Nov  4 22:43:33 2018.
