 Gaussian 16, Revision A.03,
 Gaussian 16:  ES64L-G16RevA.03 25-Dec-2016

 ----------------------------------------------------------------------
 #M062X/6-311++G(2d,2p) opt=ModRedundant freq=noraman SCRF=(Solvent=Wat
 er)
 ----------------------------------------------------------------------

 ---------------------------
 L_a1-e4_D_PSI.inp_extract_2
 ---------------------------
 Symbolic Z-matrix:
 Charge =  0 Multiplicity = 1

 SCF Done:  E(RM062X) =  -617.501983376     A.U. after   12 cycles
 SCF Done:  E(RM062X) =  -617.503823275     A.U. after   11 cycles
 SCF Done:  E(RM062X) =  -617.503984549     A.U. after   10 cycles
 SCF Done:  E(RM062X) =  -617.504012983     A.U. after    9 cycles
 SCF Done:  E(RM062X) =  -617.504015711     A.U. after    7 cycles
 SCF Done:  E(RM062X) =  -617.504015913     A.U. after    7 cycles
 Optimization completed.
    -- Stationary point found.
 Normal termination of Gaussian 16 at Sun Nov  4 21:49:19 2018.

 ----------------------------------------------------------------------
 #N Geom=AllCheck Guess=TCheck SCRF=Check GenChk RM062X/6-311++G(2d,2p)
  Freq
 ----------------------------------------------------------------------

 Structure from the checkpoint file:  "L_a1-e4_D_PSI.inp_extract_2.chk"
 ---------------------------
 L_a1-e4_D_PSI.inp_extract_2
 ---------------------------
 Charge =  0 Multiplicity = 1

                         Standard orientation:
 ---------------------------------------------------------------------
 Center     Atomic      Atomic             Coordinates (Angstroms)
 Number     Number       Type             X           Y           Z
 ---------------------------------------------------------------------
      1          6           0        2.123771    0.488666    1.397851
      2          8           0        1.507430   -0.757706    1.066777
      3          6           0        3.187057    0.572703   -0.854371
      4          8           0       -2.951400   -1.042566    0.608813
      5          6           0        1.225602   -0.898216   -0.305840
      6          6           0        2.469277   -0.739898   -1.164571
      7          6           0       -3.119596    1.314477    0.060706
      8          8           0        0.288340    0.060094   -0.743548
      9          6           0       -1.746739    1.255793   -0.606148
     10          6           0       -3.776535   -0.054516    0.005444
     11          6           0       -0.921446    0.133320   -0.000996
     12          6           0       -1.708048   -1.176123   -0.054423
     13          6           0        3.432830    0.675306    0.650092
     14          1           0        1.436714    1.307937    1.164660
     15          1           0        2.274403    0.462130    2.474574
     16          1           0        2.570445    1.412461   -1.180131
     17          1           0        4.125597    0.625406   -1.404919
     18          1           0        0.815331   -1.904295   -0.402159
     19          1           0        3.127102   -1.582961   -0.946151
     20          1           0        2.181759   -0.803694   -2.213340
     21          1           0       -3.756826    2.047582   -0.433777
     22          1           0       -3.016903    1.615872    1.105212
     23          1           0       -1.862410    1.056179   -1.675121
     24          1           0       -1.212724    2.200442   -0.501948
     25          1           0       -4.717331   -0.069361    0.551303
     26          1           0       -3.973585   -0.336476   -1.036041
     27          1           0       -0.701876    0.359708    1.046764
     28          1           0       -1.179839   -1.980731    0.452787
     29          1           0       -1.861434   -1.459293   -1.104089
     30          1           0        3.863936    1.641220    0.914563
     31          1           0        4.135627   -0.099782    0.965014
 ---------------------------------------------------------------------

 SCF Done:  E(RM062X) =  -617.504015913     A.U. after    1 cycles

 The electronic state is 1-A.
 Alpha  occ. eigenvalues --  -19.63426 -19.63243 -19.63226 -10.63585 -10.58680
 Alpha  occ. eigenvalues --  -10.58153 -10.58069 -10.57937 -10.53287 -10.53247
 Alpha  occ. eigenvalues --  -10.53122 -10.53021 -10.52933  -1.20309  -1.16705
 Alpha  occ. eigenvalues --   -1.13513  -0.91185  -0.89842  -0.87184  -0.84694
 Alpha  occ. eigenvalues --   -0.75135  -0.74144  -0.72840  -0.70682  -0.65666
 Alpha  occ. eigenvalues --   -0.64154  -0.60101  -0.59136  -0.57244  -0.55953
 Alpha  occ. eigenvalues --   -0.54136  -0.53223  -0.52456  -0.50918  -0.49782
 Alpha  occ. eigenvalues --   -0.48066  -0.46936  -0.46079  -0.45725  -0.45194
 Alpha  occ. eigenvalues --   -0.44134  -0.42969  -0.40660  -0.40142  -0.39329
 Alpha  occ. eigenvalues --   -0.38453  -0.38040  -0.36147  -0.35885  -0.33539
 Alpha  occ. eigenvalues --   -0.32007
 Alpha virt. eigenvalues --   -0.00078   0.00754   0.00884   0.01039   0.02171
 Alpha virt. eigenvalues --    0.02474   0.02637   0.03404   0.03534   0.04411
 Alpha virt. eigenvalues --    0.04588   0.04797   0.05597   0.05850   0.07135

 Mulliken charges:
               1
     1  C   -0.136908
     2  O   -0.270595
     3  C   -0.285217
     4  O   -0.318329
     5  C   -0.068387
     6  C   -0.407150
     7  C   -0.361075
     8  O   -0.248932
     9  C   -0.219840
    10  C   -0.134544
    11  C   -0.206720
    12  C   -0.340495
    13  C   -0.405475
    14  H    0.139547
    15  H    0.206257
    16  H    0.173289
    17  H    0.181498
    18  H    0.234334
    19  H    0.196000
    20  H    0.182785
    21  H    0.183947
    22  H    0.162880
    23  H    0.211750
    24  H    0.155892
    25  H    0.209614
    26  H    0.134013
    27  H    0.256200
    28  H    0.235799
    29  H    0.200040
    30  H    0.173655
    31  H    0.166167
 Sum of Mulliken charges =  -0.00000

 Dipole moment (field-independent basis, Debye):
    X=              0.8116    Y=              1.9118    Z=             -1.3534  Tot=              2.4790
 Quadrupole moment (field-independent basis, Debye-Ang):
   XX=            -73.1892   YY=            -79.8814   ZZ=            -82.3166
   XY=             -4.1244   XZ=              3.5436   YZ=              5.3320

  Exact polarizability: 174.819  -1.736 155.754  -0.600   2.972 154.389
 Approx polarizability: 145.991  -1.884 142.451   0.148   0.502 143.581

 ******    1 imaginary frequencies (negative Signs) ******

                      1                      2                      3
                      A                      A                      A
 Frequencies --     -9.9932                63.2271               101.5983
 Red. masses --      3.5941                 3.8262                 3.3964
 Frc consts  --      0.0002                 0.0090                 0.0207
 IR Inten    --      0.3887                 0.6697                 0.5212

                      4                      5                      6
                      A                      A                      A
 Frequencies --    150.9239               180.0162               231.2188
 Red. masses --      3.2801                 3.1124                 2.5118
 Frc consts  --      0.0440                 0.0594                 0.0791
 IR Inten    --      0.2628                 4.3316                12.0966

                      7                      8                      9
                      A                      A                      A
 Frequencies --    253.9838               285.1201               351.5109
 Red. masses --      2.3603                 2.5155                 2.6607
 Frc consts  --      0.0897                 0.1205                 0.1937
 IR Inten    --      1.8514                 4.7588                10.2722

                     10                     11                     12
                      A                      A                      A
 Frequencies --    368.4689               376.7031               438.0630
 Red. masses --      2.4622                 2.3014                 3.4327
 Frc consts  --      0.1970                 0.1924                 0.3881
 IR Inten    --      3.3451                26.1475                 9.3787

                     13                     14                     15
                      A                      A                      A
 Frequencies --    449.1038               464.4342               479.4610
 Red. masses --      3.4341                 3.1447                 2.4324
 Frc consts  --      0.4081                 0.3996                 0.3294
 IR Inten    --      3.4486                 0.0741                 2.1672

                     16                     17                     18
                      A                      A                      A
 Frequencies --    533.5418               577.9596               622.4186
 Red. masses --      2.2388                 2.2868                 3.0518
 Frc consts  --      0.3755                 0.4501                 0.6966
 IR Inten    --      1.8356                 7.5775                 3.7014

                     19                     20                     21
                      A                      A                      A
 Frequencies --    724.9925               832.6593               833.0766
 Red. masses --      3.0772                 2.2594                 1.5660
 Frc consts  --      0.9529                 0.9230                 0.6403
 IR Inten    --      2.1333                 0.3869                 1.4174

                     22                     23                     24
                      A                      A                      A
 Frequencies --    841.0389               879.2261               891.4964
 Red. masses --      3.0947                 1.3938                 2.3328
 Frc consts  --      1.2897                 0.6348                 1.0923
 IR Inten    --      8.3967                 9.5137                 4.5752

                     25                     26                     27
                      A                      A                      A
 Frequencies --    898.7195               912.2603               928.7845
 Red. masses --      2.4457                 2.5019                 1.7222
 Frc consts  --      1.1639                 1.2268                 0.8753
 IR Inten    --     36.6230                 8.0686                19.8981

                     28                     29                     30
                      A                      A                      A
 Frequencies --    945.6491               990.1539               994.3890
 Red. masses --      2.0985                 1.7699                 1.8032
 Frc consts  --      1.1057                 1.0224                 1.0505
 IR Inten    --     24.4317                59.7337                21.7759

                     31                     32                     33
                      A                      A                      A
 Frequencies --   1020.7330              1042.7575              1056.0538
 Red. masses --      2.2029                 2.3177                 1.7148
 Frc consts  --      1.3523                 1.4848                 1.1268
 IR Inten    --     38.7857                82.9466                30.4812

                     34                     35                     36
                      A                      A                      A
 Frequencies --   1064.1678              1071.6517              1115.1442
 Red. masses --      1.5224                 2.2506                 4.5228
 Frc consts  --      1.0158                 1.5229                 3.3138
 IR Inten    --     59.5578                14.8182               252.9648

                     37                     38                     39
                      A                      A                      A
 Frequencies --   1148.0330              1152.2653              1168.7735
 Red. masses --      2.4460                 2.9244                 2.4523
 Frc consts  --      1.8994                 2.2877                 1.9737
 IR Inten    --     32.9617               141.6524                16.3434

                     40                     41                     42
                      A                      A                      A
 Frequencies --   1180.6559              1189.4695              1210.3010
 Red. masses --      3.7287                 2.1762                 1.4130
 Frc consts  --      3.0623                 1.8140                 1.2195
 IR Inten    --    192.3971                25.2948                10.9491

                     43                     44                     45
                      A                      A                      A
 Frequencies --   1223.3719              1234.0282              1254.8353
 Red. masses --      1.6714                 1.6301                 1.5130
 Frc consts  --      1.4738                 1.4626                 1.4036
 IR Inten    --     32.2492                58.8075                20.8549

                     46                     47                     48
                      A                      A                      A
 Frequencies --   1288.8528              1304.2968              1321.8166
 Red. masses --      1.2190                 1.1716                 1.1478
 Frc consts  --      1.1930                 1.1743                 1.1816
 IR Inten    --     20.5132                13.4067                 7.8225

                     49                     50                     51
                      A                      A                      A
 Frequencies --   1328.9460              1343.1388              1354.6620
 Red. masses --      1.2677                 1.2321                 1.2909
 Frc consts  --      1.3191                 1.3096                 1.3958
 IR Inten    --      8.1584                 1.5704                15.3405

                     52                     53                     54
                      A                      A                      A
 Frequencies --   1364.5381              1383.2123              1385.2214
 Red. masses --      1.3062                 1.4480                 1.4500
 Frc consts  --      1.4329                 1.6322                 1.6393
 IR Inten    --      0.5391                 4.4711                 2.2537

                     55                     56                     57
                      A                      A                      A
 Frequencies --   1391.4764              1399.1558              1405.0725
 Red. masses --      1.6735                 1.2432                 1.4987
 Frc consts  --      1.9091                 1.4339                 1.7433
 IR Inten    --     13.9774                12.7467                11.7055

                     58                     59                     60
                      A                      A                      A
 Frequencies --   1411.7485              1423.4753              1433.9308
 Red. masses --      1.3842                 1.4464                 1.4195
 Frc consts  --      1.6254                 1.7268                 1.7197
 IR Inten    --      6.7937                11.1426                10.8022

                     61                     62                     63
                      A                      A                      A
 Frequencies --   1436.6744              1476.1791              1482.0115
 Red. masses --      1.3900                 1.1042                 1.0934
 Frc consts  --      1.6904                 1.4177                 1.4149
 IR Inten    --     11.6392                 5.2124                 8.0236

                     64                     65                     66
                      A                      A                      A
 Frequencies --   1482.4745              1496.0285              1496.5336
 Red. masses --      1.0863                 1.1089                 1.1137
 Frc consts  --      1.4066                 1.4623                 1.4695
 IR Inten    --      7.6047                16.0820                 7.7049

                     67                     68                     69
                      A                      A                      A
 Frequencies --   1501.4773              1508.9047              1513.6758
 Red. masses --      1.0828                 1.0934                 1.1001
 Frc consts  --      1.4382                 1.4667                 1.4850
 IR Inten    --      1.4258                 3.4527                 7.6901

                     70                     71                     72
                      A                      A                      A
 Frequencies --   3013.5497              3020.9484              3048.6376
 Red. masses --      1.0695                 1.0705                 1.0693
 Frc consts  --      5.7225                 5.7558                 5.8553
 IR Inten    --     46.6349                81.0687                54.8323

                     73                     74                     75
                      A                      A                      A
 Frequencies --   3054.9438              3063.9810              3064.0995
 Red. masses --      1.0731                 1.0717                 1.0650
 Frc consts  --      5.9005                 5.9279                 5.8910
 IR Inten    --      8.1675                54.3949                43.9554

                     76                     77                     78
                      A                      A                      A
 Frequencies --   3070.8318              3074.1166              3077.3425
 Red. masses --      1.0622                 1.0639                 1.0634
 Frc consts  --      5.9018                 5.9235                 5.9334
 IR Inten    --     46.1258                28.3712                14.4884

                     79                     80                     81
                      A                      A                      A
 Frequencies --   3092.1227              3113.8603              3114.7961
 Red. masses --      1.0839                 1.0994                 1.0981
 Frc consts  --      6.1062                 6.2804                 6.2769
 IR Inten    --     80.3048                43.5577                34.5133

                     82                     83                     84
                      A                      A                      A
 Frequencies --   3120.6387              3121.6991              3130.4141
 Red. masses --      1.1023                 1.1025                 1.1034
 Frc consts  --      6.3247                 6.3302                 6.3704
 IR Inten    --     59.5807                53.4342                39.1083

                     85                     86                     87
                      A                      A                      A
 Frequencies --   3134.3403              3136.8302              3137.2030
 Red. masses --      1.0942                 1.0958                 1.0959
 Frc consts  --      6.3333                 6.3530                 6.3548
 IR Inten    --     52.6010                 7.0784                71.9796

 - Thermochemistry -
 -------------------
 Temperature   298.150 Kelvin.  Pressure   1.00000 Atm.
 Atom     1 has atomic number  6 and mass  12.00000

 Molecular mass:   186.12559 amu.
 Principal axes and moments of inertia in atomic units:
                           1         2         3
     Eigenvalues --   942.404184372.843324470.00537
           X            0.99999  -0.00433   0.00144
           Y            0.00399   0.98317   0.18265
           Z           -0.00221  -0.18264   0.98318
 This molecule is an asymmetric top.
 Rotational symmetry number  1.
 Warning -- assumption of classical behavior for rotation
           may cause significant error
 Rotational temperatures (Kelvin)      0.09191     0.01981     0.01938
 Rotational constants (GHZ):           1.91504     0.41272     0.40374
    1 imaginary frequencies ignored.
 Zero-point vibrational energy     737236.4 (Joules/Mol)
                                  176.20373 (Kcal/Mol)
 Warning -- explicit consideration of  16 degrees of freedom as
           vibrations may cause significant error
 Vibrational temperatures:     90.97   146.18   217.15   259.00   332.67
          (Kelvin)            365.43   410.22   505.75   530.14   541.99
                              630.27   646.16   668.22   689.84   767.65
                              831.55   895.52  1043.10  1198.01  1198.61
                             1210.07  1265.01  1282.66  1293.06  1312.54
                             1336.31  1360.58  1424.61  1430.70  1468.61
                             1500.30  1519.43  1531.10  1541.87  1604.44
                             1651.76  1657.85  1681.60  1698.70  1711.38
                             1741.35  1760.16  1775.49  1805.43  1854.37
                             1876.59  1901.80  1912.06  1932.48  1949.06
                             1963.27  1990.13  1993.02  2002.02  2013.07
                             2021.59  2031.19  2048.06  2063.11  2067.05
                             2123.89  2132.28  2132.95  2152.45  2153.18
                             2160.29  2170.98  2177.84  4335.83  4346.47
                             4386.31  4395.38  4408.39  4408.56  4418.24
                             4422.97  4427.61  4448.87  4480.15  4481.50
                             4489.90  4491.43  4503.97  4509.62  4513.20
                             4513.74

 Zero-point correction=                           0.280799 (Hartree/Particle)
 Thermal correction to Energy=                    0.291627
 Thermal correction to Enthalpy=                  0.292571
 Thermal correction to Gibbs Free Energy=         0.244277
 Sum of electronic and zero-point Energies=           -617.223217
 Sum of electronic and thermal Energies=              -617.212389
 Sum of electronic and thermal Enthalpies=            -617.211445
 Sum of electronic and thermal Free Energies=         -617.259739

                     E (Thermal)             CV                S
                      KCal/Mol        Cal/Mol-Kelvin    Cal/Mol-Kelvin
 Total                  182.998             44.664            101.642
 Electronic               0.000              0.000              0.000
 Translational            0.889              2.981             41.570
 Rotational               0.889              2.981             31.288
 Vibrational            181.221             38.702             28.784
 Vibration     1          0.597              1.972              4.354
 Vibration     2          0.604              1.948              3.423
 Vibration     3          0.618              1.902              2.661
 Vibration     4          0.629              1.867              2.328
 Vibration     5          0.653              1.793              1.869
 Vibration     6          0.665              1.756              1.703
 Vibration     7          0.683              1.701              1.503
 Vibration     8          0.728              1.572              1.159
 Vibration     9          0.741              1.537              1.086
 Vibration    10          0.747              1.520              1.052
 Vibration    11          0.798              1.387              0.833
 Vibration    12          0.808              1.363              0.798
 Vibration    13          0.822              1.329              0.753
 Vibration    14          0.836              1.296              0.712
 Vibration    15          0.889              1.176              0.579
 Vibration    16          0.934              1.079              0.489

 Optimization completed.
    -- Stationary point found.
 Normal termination of Gaussian 16 at Sun Nov  4 22:40:53 2018.
