 Gaussian 16, Revision B.01,
 Gaussian 16:  ES64L-G16RevB.01 20-Dec-2017

 ----------------------------------------------------------------------
 #M062X/6-311++G(2d,2p) opt=ModRedundant freq=noraman SCRF=(SMD,solvent
 =water)
 ----------------------------------------------------------------------

 -------------------------------
 4c1_a1_a4_4c1_PSI.inp_extract_8
 -------------------------------
 Symbolic Z-matrix:
 Charge =  0 Multiplicity = 1

 SCF Done:  E(RM062X) =  -617.499509127     A.U. after   13 cycles
 SCF Done:  E(RM062X) =  -617.500368106     A.U. after   11 cycles
 SCF Done:  E(RM062X) =  -617.501338207     A.U. after   10 cycles
 SCF Done:  E(RM062X) =  -617.501664678     A.U. after   10 cycles
 SCF Done:  E(RM062X) =  -617.501722839     A.U. after   10 cycles
 SCF Done:  E(RM062X) =  -617.501745062     A.U. after   10 cycles
 SCF Done:  E(RM062X) =  -617.501768806     A.U. after    9 cycles
 SCF Done:  E(RM062X) =  -617.501773717     A.U. after   10 cycles
 SCF Done:  E(RM062X) =  -617.501782996     A.U. after    9 cycles
 SCF Done:  E(RM062X) =  -617.501783179     A.U. after    8 cycles
 SCF Done:  E(RM062X) =  -617.501782480     A.U. after    8 cycles
 Optimization completed.
    -- Stationary point found.
 Normal termination of Gaussian 16 at Sat Mar  9 00:33:57 2019.

 ----------------------------------------------------------------------
 #N Geom=AllCheck Guess=TCheck SCRF=Check GenChk RM062X/6-311++G(2d,2p)
  Freq
 ----------------------------------------------------------------------

 Structure from the checkpoint file:  "4c1_a1_a4_4c1_PSI.inp_extract_8.chk"
 -------------------------------
 4c1_a1_a4_4c1_PSI.inp_extract_8
 -------------------------------
 Charge =  0 Multiplicity = 1

                         Standard orientation:
 ---------------------------------------------------------------------
 Center     Atomic      Atomic             Coordinates (Angstroms)
 Number     Number       Type             X           Y           Z
 ---------------------------------------------------------------------
      1          6           0       -1.779718   -0.687662   -1.164144
      2          6           0        1.068915   -0.786761   -0.678586
      3          6           0       -1.215362   -1.306736    0.114497
      4          6           0        2.859703    1.239212    0.339549
      5          6           0       -2.788858    1.136535   -0.052651
      6          8           0       -1.948175    0.721517   -1.124256
      7          6           0        2.989597   -0.194875    0.846189
      8          6           0        1.425871    1.497246   -0.082814
      9          6           0        2.475451   -1.152976   -0.225456
     10          6           0       -2.186646    0.732802    1.277549
     11          8           0        0.994209    0.563963   -1.079937
     12          8           0        0.186586   -1.092706    0.375717
     13          6           0       -2.000966   -0.779149    1.311824
     14          1           0       -2.755798   -1.161599   -1.321690
     15          1           0       -1.162985   -0.901618   -2.033273
     16          1           0        0.804558   -1.358700   -1.567606
     17          1           0       -1.358754   -2.385866    0.021792
     18          1           0        3.520540    1.391619   -0.517283
     19          1           0        3.138782    1.959300    1.109295
     20          1           0       -2.887556    2.216345   -0.142817
     21          1           0       -3.779527    0.682471   -0.175423
     22          1           0        2.406215   -0.311479    1.762363
     23          1           0        4.025290   -0.429454    1.089807
     24          1           0        1.306247    2.479861   -0.534066
     25          1           0        0.764952    1.434970    0.784344
     26          1           0        3.121835   -1.095554   -1.103317
     27          1           0        2.473389   -2.185721    0.120509
     28          1           0       -2.843504    1.048410    2.088409
     29          1           0       -1.232399    1.244202    1.408364
     30          1           0       -1.506398   -1.098484    2.229609
     31          1           0       -2.983768   -1.256717    1.293044
 ---------------------------------------------------------------------

 SCF Done:  E(RM062X) =  -617.501782480     A.U. after    1 cycles

 The electronic state is 1-A.
 Alpha  occ. eigenvalues --  -19.62969 -19.62809 -19.62743 -10.63051 -10.58634
 Alpha  occ. eigenvalues --  -10.57758 -10.57236 -10.57163 -10.52575 -10.52355
 Alpha  occ. eigenvalues --  -10.52299 -10.52220 -10.52140  -1.19324  -1.16006
 Alpha  occ. eigenvalues --   -1.12945  -0.90461  -0.89227  -0.86441  -0.84401
 Alpha  occ. eigenvalues --   -0.74520  -0.73432  -0.72415  -0.70723  -0.65386
 Alpha  occ. eigenvalues --   -0.62071  -0.59484  -0.57797  -0.57170  -0.55035
 Alpha  occ. eigenvalues --   -0.53420  -0.52615  -0.52135  -0.49881  -0.49358
 Alpha  occ. eigenvalues --   -0.48154  -0.46397  -0.45248  -0.45127  -0.44850
 Alpha  occ. eigenvalues --   -0.42890  -0.42092  -0.40775  -0.39930  -0.39014
 Alpha  occ. eigenvalues --   -0.37707  -0.37104  -0.35759  -0.34045  -0.33195
 Alpha  occ. eigenvalues --   -0.31818
 Alpha virt. eigenvalues --    0.00283   0.01262   0.01370   0.01567   0.02780
 Alpha virt. eigenvalues --    0.03007   0.03240   0.03588   0.03798   0.05260
 Alpha virt. eigenvalues --    0.05467   0.05551   0.05870   0.06376   0.07786

 Mulliken charges:
               1
     1  C   -0.399628
     2  C   -0.018355
     3  C    0.167096
     4  C   -0.385637
     5  C   -0.261272
     6  O   -0.330683
     7  C   -0.296135
     8  C   -0.114403
     9  C   -0.517064
    10  C   -0.291205
    11  O   -0.297139
    12  O   -0.366798
    13  C   -0.428028
    14  H    0.213753
    15  H    0.233225
    16  H    0.246084
    17  H    0.256284
    18  H    0.168848
    19  H    0.180264
    20  H    0.207977
    21  H    0.171100
    22  H    0.174008
    23  H    0.193922
    24  H    0.221033
    25  H    0.147282
    26  H    0.203188
    27  H    0.190793
    28  H    0.200694
    29  H    0.137468
    30  H    0.179379
    31  H    0.213949
 Sum of Mulliken charges =  -0.00000

 Dipole moment (field-independent basis, Debye):
    X=             -0.7989    Y=             -1.6043    Z=              1.9589  Tot=              2.6551
 Quadrupole moment (field-independent basis, Debye-Ang):
   XX=            -68.2793   YY=            -75.6411   ZZ=            -83.2897
   XY=              3.0529   XZ=             -2.9049   YZ=              7.2256

  Exact polarizability: 178.551   0.996 176.387  -1.251   2.746 168.951
 Approx polarizability: 144.389   1.390 144.754  -1.554   1.257 141.729

 ******    1 imaginary frequencies (negative Signs) ******

                      1                      2                      3
                      A                      A                      A
 Frequencies --    -46.3226                99.4138               116.4569
 Red. masses --      3.8468                 4.2646                 3.3259
 Frc consts  --      0.0049                 0.0248                 0.0266
 IR Inten    --      0.3865                 4.1169                 3.6645

                      4                      5                      6
                      A                      A                      A
 Frequencies --    129.9443               172.7608               233.9891
 Red. masses --      3.1887                 3.5043                 3.1983
 Frc consts  --      0.0317                 0.0616                 0.1032
 IR Inten    --      1.3258                 9.3462                 7.7314

                      7                      8                      9
                      A                      A                      A
 Frequencies --    261.2206               290.4683               328.6603
 Red. masses --      3.3268                 2.4148                 2.1145
 Frc consts  --      0.1338                 0.1200                 0.1346
 IR Inten    --      9.4577                 6.9861                 2.7809

                     10                     11                     12
                      A                      A                      A
 Frequencies --    375.9768               406.0734               440.5379
 Red. masses --      2.0002                 2.1388                 3.1308
 Frc consts  --      0.1666                 0.2078                 0.3580
 IR Inten    --      5.7082                 4.3041                 9.3420

                     13                     14                     15
                      A                      A                      A
 Frequencies --    445.3047               486.5583               517.7352
 Red. masses --      2.2560                 3.8415                 2.6635
 Frc consts  --      0.2636                 0.5358                 0.4207
 IR Inten    --      4.8876                 8.5109                 1.8418

                     16                     17                     18
                      A                      A                      A
 Frequencies --    534.4841               580.0314               681.3425
 Red. masses --      2.0570                 3.1385                 2.8918
 Frc consts  --      0.3462                 0.6221                 0.7909
 IR Inten    --      4.4736                17.5530                 9.0619

                     19                     20                     21
                      A                      A                      A
 Frequencies --    739.8726               811.5853               837.0184
 Red. masses --      2.4461                 3.0057                 1.7703
 Frc consts  --      0.7889                 1.1664                 0.7307
 IR Inten    --     13.0354                11.4469                 3.5704

                     22                     23                     24
                      A                      A                      A
 Frequencies --    849.8420               859.6334               875.0698
 Red. masses --      2.9801                 1.8805                 2.0218
 Frc consts  --      1.2681                 0.8188                 0.9122
 IR Inten    --      3.7720                17.8263                12.3432

                     25                     26                     27
                      A                      A                      A
 Frequencies --    904.6567               906.4797               917.7334
 Red. masses --      2.6007                 2.2545                 2.3014
 Frc consts  --      1.2540                 1.0915                 1.1420
 IR Inten    --     28.8727                49.7164                17.2101

                     28                     29                     30
                      A                      A                      A
 Frequencies --    931.6517               948.5007               998.6017
 Red. masses --      1.9000                 1.6690                 1.8504
 Frc consts  --      0.9717                 0.8847                 1.0871
 IR Inten    --     18.5162                14.5466                25.2480

                     31                     32                     33
                      A                      A                      A
 Frequencies --   1031.3714              1038.0589              1061.5938
 Red. masses --      2.2669                 2.2574                 1.7726
 Frc consts  --      1.4208                 1.4332                 1.1770
 IR Inten    --     20.8006                 5.1538                18.4157

                     34                     35                     36
                      A                      A                      A
 Frequencies --   1066.0824              1069.8761              1087.1035
 Red. masses --      1.7064                 1.7144                 1.8279
 Frc consts  --      1.1426                 1.1562                 1.2728
 IR Inten    --     38.2034                 9.4409               195.6154

                     37                     38                     39
                      A                      A                      A
 Frequencies --   1105.1936              1156.7914              1168.5365
 Red. masses --      1.6404                 2.6756                 2.8018
 Frc consts  --      1.1805                 2.1095                 2.2541
 IR Inten    --     91.7858                67.9296               161.3868

                     40                     41                     42
                      A                      A                      A
 Frequencies --   1179.5557              1198.5247              1209.1848
 Red. masses --      2.3631                 3.0423                 1.4660
 Frc consts  --      1.9372                 2.5748                 1.2629
 IR Inten    --     71.3896               197.4997                54.6982

                     43                     44                     45
                      A                      A                      A
 Frequencies --   1226.2465              1244.7554              1248.9826
 Red. masses --      1.3475                 1.9085                 2.0764
 Frc consts  --      1.1938                 1.7422                 1.9084
 IR Inten    --     25.8083               161.3349                58.6299

                     46                     47                     48
                      A                      A                      A
 Frequencies --   1284.1827              1311.4548              1319.8454
 Red. masses --      1.2440                 1.1349                 1.1720
 Frc consts  --      1.2087                 1.1501                 1.2029
 IR Inten    --     44.0848                18.5934                22.4579

                     49                     50                     51
                      A                      A                      A
 Frequencies --   1341.2150              1358.1798              1361.4128
 Red. masses --      1.2960                 1.3680                 1.3957
 Frc consts  --      1.3735                 1.4868                 1.5242
 IR Inten    --     19.8420                23.4708                 6.1677

                     52                     53                     54
                      A                      A                      A
 Frequencies --   1371.7765              1383.4359              1387.6889
 Red. masses --      1.4090                 1.5117                 1.4470
 Frc consts  --      1.5622                 1.7046                 1.6417
 IR Inten    --     17.9492                 1.9102                 3.8169

                     55                     56                     57
                      A                      A                      A
 Frequencies --   1395.2219              1395.8807              1404.7797
 Red. masses --      1.3922                 1.6688                 1.3047
 Frc consts  --      1.5968                 1.9158                 1.5170
 IR Inten    --     24.4082                 7.1080                 3.7273

                     58                     59                     60
                      A                      A                      A
 Frequencies --   1410.5331              1424.2479              1438.7078
 Red. masses --      1.4083                 1.3827                 1.3685
 Frc consts  --      1.6508                 1.6525                 1.6689
 IR Inten    --      2.3113                13.9362                 5.8956

                     61                     62                     63
                      A                      A                      A
 Frequencies --   1445.7313              1469.8884              1470.9756
 Red. masses --      1.3220                 1.0933                 1.1073
 Frc consts  --      1.6280                 1.3917                 1.4116
 IR Inten    --     48.1383                 8.4378                 5.8888

                     64                     65                     66
                      A                      A                      A
 Frequencies --   1473.7688              1481.3255              1489.9744
 Red. masses --      1.0862                 1.1157                 1.1176
 Frc consts  --      1.3901                 1.4424                 1.4618
 IR Inten    --     12.6817                13.2947                13.2102

                     67                     68                     69
                      A                      A                      A
 Frequencies --   1495.3843              1503.4433              1504.4224
 Red. masses --      1.0875                 1.1024                 1.0954
 Frc consts  --      1.4328                 1.4681                 1.4608
 IR Inten    --     13.5562                11.0153                 5.7158

                     70                     71                     72
                      A                      A                      A
 Frequencies --   3026.5322              3036.3023              3062.5290
 Red. masses --      1.0701                 1.0721                 1.0661
 Frc consts  --      5.7750                 5.8232                 5.8915
 IR Inten    --     84.6432                37.6833                24.8381

                     73                     74                     75
                      A                      A                      A
 Frequencies --   3063.8833              3069.1262              3075.0153
 Red. masses --      1.0720                 1.0631                 1.0761
 Frc consts  --      5.9293                 5.9002                 5.9948
 IR Inten    --     16.5495                40.1383               112.6975

                     76                     77                     78
                      A                      A                      A
 Frequencies --   3077.7941              3079.5818              3094.1333
 Red. masses --      1.0633                 1.0638                 1.0624
 Frc consts  --      5.9346                 5.9440                 5.9924
 IR Inten    --     33.6703                22.8684                57.7863

                     79                     80                     81
                      A                      A                      A
 Frequencies --   3107.9619              3113.9697              3115.8322
 Red. masses --      1.0872                 1.1002                 1.0967
 Frc consts  --      6.1874                 6.2857                 6.2731
 IR Inten    --     62.7206                42.0919                23.1376

                     82                     83                     84
                      A                      A                      A
 Frequencies --   3119.3593              3131.8704              3132.9711
 Red. masses --      1.1025                 1.0977                 1.1021
 Frc consts  --      6.3204                 6.3438                 6.3738
 IR Inten    --     84.5965                36.4251                41.4700

                     85                     86                     87
                      A                      A                      A
 Frequencies --   3137.2898              3145.2096              3157.0595
 Red. masses --      1.0975                 1.1034                 1.0915
 Frc consts  --      6.3644                 6.4312                 6.4099
 IR Inten    --     76.3129                23.8586                33.6257

 - Thermochemistry -
 -------------------
 Temperature   298.150 Kelvin.  Pressure   1.00000 Atm.
 Atom     1 has atomic number  6 and mass  12.00000

 Molecular mass:   186.12559 amu.
 Principal axes and moments of inertia in atomic units:
                           1         2         3
     Eigenvalues --  1219.751193248.007453448.01094
           X            0.99999   0.00453  -0.00279
           Y           -0.00420   0.99416   0.10781
           Z            0.00326  -0.10780   0.99417
 This molecule is an asymmetric top.
 Rotational symmetry number  1.
 Warning -- assumption of classical behavior for rotation
           may cause significant error
 Rotational temperatures (Kelvin)      0.07101     0.02667     0.02512
 Rotational constants (GHZ):           1.47960     0.55565     0.52342
    1 imaginary frequencies ignored.
 Zero-point vibrational energy     738355.3 (Joules/Mol)
                                  176.47114 (Kcal/Mol)
 Warning -- explicit consideration of  16 degrees of freedom as
           vibrations may cause significant error
 Vibrational temperatures:    143.03   167.56   186.96   248.56   336.66
          (Kelvin)            375.84   417.92   472.87   540.95   584.25
                              633.84   640.69   700.05   744.91   769.00
                              834.54   980.30  1064.51  1167.69  1204.28
                             1222.73  1236.82  1259.03  1301.60  1304.22
                             1320.41  1340.44  1364.68  1436.77  1483.91
                             1493.54  1527.40  1533.85  1539.31  1564.10
                             1590.13  1664.36  1681.26  1697.12  1724.41
                             1739.75  1764.30  1790.93  1797.01  1847.65
                             1886.89  1898.96  1929.71  1954.12  1958.77
                             1973.68  1990.46  1996.57  2007.41  2008.36
                             2021.16  2029.44  2049.18  2069.98  2080.08
                             2114.84  2116.41  2120.42  2131.30  2143.74
                             2151.52  2163.12  2164.53  4354.50  4368.56
                             4406.30  4408.24  4415.79  4424.26  4428.26
                             4430.83  4451.77  4471.66  4480.31  4482.99
                             4488.06  4506.06  4507.65  4513.86  4525.26
                             4542.30

 Zero-point correction=                           0.281225 (Hartree/Particle)
 Thermal correction to Energy=                    0.291915
 Thermal correction to Enthalpy=                  0.292859
 Thermal correction to Gibbs Free Energy=         0.245239
 Sum of electronic and zero-point Energies=           -617.220558
 Sum of electronic and thermal Energies=              -617.209868
 Sum of electronic and thermal Enthalpies=            -617.208924
 Sum of electronic and thermal Free Energies=         -617.256544

                     E (Thermal)             CV                S
                      KCal/Mol        Cal/Mol-Kelvin    Cal/Mol-Kelvin
 Total                  183.179             44.488            100.225
 Electronic               0.000              0.000              0.000
 Translational            0.889              2.981             41.570
 Rotational               0.889              2.981             30.991
 Vibrational            181.402             38.527             27.664
 Vibration     1          0.604              1.950              3.466
 Vibration     2          0.608              1.936              3.158
 Vibration     3          0.612              1.923              2.947
 Vibration     4          0.626              1.876              2.405
 Vibration     5          0.654              1.789              1.848
 Vibration     6          0.669              1.744              1.654
 Vibration     7          0.686              1.691              1.471
 Vibration     8          0.712              1.618              1.267
 Vibration     9          0.747              1.521              1.055
 Vibration    10          0.771              1.457              0.941
 Vibration    11          0.800              1.382              0.825
 Vibration    12          0.805              1.371              0.810
 Vibration    13          0.843              1.280              0.693
 Vibration    14          0.873              1.211              0.615
 Vibration    15          0.889              1.174              0.577
 Vibration    16          0.937              1.074              0.485

 Optimization completed.
    -- Stationary point found.
 Normal termination of Gaussian 16 at Sat Mar  9 01:42:20 2019.
