 Gaussian 16, Revision B.01,
 Gaussian 16:  ES64L-G16RevB.01 20-Dec-2017

 ----------------------------------------------------------------------
 #M062X/6-311++G(2d,2p) opt=ModRedundant freq=noraman SCRF=(SMD,solvent
 =water)
 ----------------------------------------------------------------------

 -------------------------------
 4c1_a1_a4_4c1_PSI.inp_extract_0
 -------------------------------
 Symbolic Z-matrix:
 Charge =  0 Multiplicity = 1

 SCF Done:  E(RM062X) =  -617.507114580     A.U. after   12 cycles
 SCF Done:  E(RM062X) =  -617.508842152     A.U. after   10 cycles
 SCF Done:  E(RM062X) =  -617.508974669     A.U. after    9 cycles
 SCF Done:  E(RM062X) =  -617.508986207     A.U. after    9 cycles
 SCF Done:  E(RM062X) =  -617.508986870     A.U. after    8 cycles
 SCF Done:  E(RM062X) =  -617.508986868     A.U. after    7 cycles
 Optimization completed.
    -- Stationary point found.
 Normal termination of Gaussian 16 at Fri Mar  8 22:18:09 2019.

 ----------------------------------------------------------------------
 #N Geom=AllCheck Guess=TCheck SCRF=Check GenChk RM062X/6-311++G(2d,2p)
  Freq
 ----------------------------------------------------------------------

 Structure from the checkpoint file:  "4c1_a1_a4_4c1_PSI.inp_extract_0.chk"
 -------------------------------
 4c1_a1_a4_4c1_PSI.inp_extract_0
 -------------------------------
 Charge =  0 Multiplicity = 1

                         Standard orientation:
 ---------------------------------------------------------------------
 Center     Atomic      Atomic             Coordinates (Angstroms)
 Number     Number       Type             X           Y           Z
 ---------------------------------------------------------------------
      1          6           0        1.665840   -1.433009   -0.183529
      2          6           0       -1.126006    0.777262   -0.625851
      3          6           0        1.027135   -0.217609   -0.828369
      4          6           0       -3.360110   -0.604969    0.552133
      5          6           0        3.385596   -0.161603    0.798475
      6          8           0        2.335131   -1.101107    1.025638
      7          6           0       -2.641801    0.478033    1.354274
      8          6           0       -2.403551   -1.227513   -0.447729
      9          6           0       -2.002264    1.480405    0.394951
     10          6           0        2.839629    1.143233    0.246110
     11          8           0       -1.835082   -0.236767   -1.313816
     12          8           0       -0.008371    0.247327    0.046278
     13          6           0        2.064015    0.880364   -1.043666
     14          1           0        2.375990   -1.878971   -0.888285
     15          1           0        0.905509   -2.169702    0.069767
     16          1           0       -0.796709    1.463574   -1.408726
     17          1           0        0.586650   -0.529031   -1.776677
     18          1           0       -4.203258   -0.166891    0.012389
     19          1           0       -3.751703   -1.386074    1.204381
     20          1           0        3.877518   -0.015746    1.757873
     21          1           0        4.106639   -0.599096    0.097984
     22          1           0       -1.871986    0.019124    1.978217
     23          1           0       -3.335228    0.990186    2.020383
     24          1           0       -2.910389   -1.931097   -1.104390
     25          1           0       -1.599687   -1.757463    0.070159
     26          1           0       -2.780782    2.012825   -0.154234
     27          1           0       -1.400473    2.219041    0.923347
     28          1           0        3.664567    1.832634    0.065943
     29          1           0        2.186138    1.598191    0.992610
     30          1           0        1.571085    1.785401   -1.400714
     31          1           0        2.751790    0.549909   -1.825619
 ---------------------------------------------------------------------

 SCF Done:  E(RM062X) =  -617.508986868     A.U. after    1 cycles

 The electronic state is 1-A.
 Alpha  occ. eigenvalues --  -19.63013 -19.62968 -19.62901 -10.63093 -10.58148
 Alpha  occ. eigenvalues --  -10.57509 -10.57302 -10.57222 -10.52491 -10.52445
 Alpha  occ. eigenvalues --  -10.52346 -10.52261 -10.52186  -1.19801  -1.16174
 Alpha  occ. eigenvalues --   -1.12961  -0.90403  -0.89050  -0.86782  -0.84033
 Alpha  occ. eigenvalues --   -0.73993  -0.73356  -0.72187  -0.71163  -0.65741
 Alpha  occ. eigenvalues --   -0.62198  -0.59303  -0.57863  -0.57132  -0.54906
 Alpha  occ. eigenvalues --   -0.53858  -0.52826  -0.51356  -0.50824  -0.49062
 Alpha  occ. eigenvalues --   -0.47551  -0.46497  -0.45682  -0.45343  -0.44469
 Alpha  occ. eigenvalues --   -0.42824  -0.42530  -0.41352  -0.39405  -0.38648
 Alpha  occ. eigenvalues --   -0.37818  -0.37283  -0.35728  -0.35049  -0.33213
 Alpha  occ. eigenvalues --   -0.31883
 Alpha virt. eigenvalues --    0.00341   0.01304   0.01396   0.01472   0.02697
 Alpha virt. eigenvalues --    0.02967   0.03151   0.03734   0.03891   0.05116
 Alpha virt. eigenvalues --    0.05213   0.05281   0.05919   0.06200   0.07562

 Mulliken charges:
               1
     1  C   -0.434781
     2  C   -0.055550
     3  C    0.098538
     4  C   -0.375046
     5  C   -0.228838
     6  O   -0.350807
     7  C   -0.333150
     8  C   -0.123953
     9  C   -0.369133
    10  C   -0.322534
    11  O   -0.347499
    12  O   -0.293489
    13  C   -0.360865
    14  H    0.197305
    15  H    0.212850
    16  H    0.274096
    17  H    0.285573
    18  H    0.170197
    19  H    0.178464
    20  H    0.207554
    21  H    0.161345
    22  H    0.185210
    23  H    0.189356
    24  H    0.217371
    25  H    0.119635
    26  H    0.192583
    27  H    0.179814
    28  H    0.181643
    29  H    0.170097
    30  H    0.158810
    31  H    0.215202
 Sum of Mulliken charges =  -0.00000

 Dipole moment (field-independent basis, Debye):
    X=              0.4466    Y=              1.1773    Z=             -1.6154  Tot=              2.0482
 Quadrupole moment (field-independent basis, Debye-Ang):
   XX=            -69.8278   YY=            -76.1850   ZZ=            -84.2816
   XY=              3.6370   XZ=             -8.5314   YZ=              2.3228

  Exact polarizability: 180.824   2.983 173.053   0.063   1.168 168.527
 Approx polarizability: 145.428   1.905 141.729   0.500   0.282 142.077

                      1                      2                      3
                      A                      A                      A
 Frequencies --     32.0598                56.7946                77.4107
 Red. masses --      3.6831                 3.7441                 3.7500
 Frc consts  --      0.0022                 0.0071                 0.0132
 IR Inten    --      1.7286                 4.1957                 2.8061

                      4                      5                      6
                      A                      A                      A
 Frequencies --    146.7008               167.4978               242.3606
 Red. masses --      3.3806                 3.3317                 2.5881
 Frc consts  --      0.0429                 0.0551                 0.0896
 IR Inten    --      0.6507                 1.1963                17.5783

                      7                      8                      9
                      A                      A                      A
 Frequencies --    250.7095               283.4137               337.3831
 Red. masses --      3.3949                 2.2336                 2.0206
 Frc consts  --      0.1257                 0.1057                 0.1355
 IR Inten    --      0.7422                 8.2143                 3.1102

                     10                     11                     12
                      A                      A                      A
 Frequencies --    392.7341               412.2482               436.4992
 Red. masses --      1.9941                 2.8235                 2.8675
 Frc consts  --      0.1812                 0.2827                 0.3219
 IR Inten    --      6.9130                 2.6201                17.2241

                     13                     14                     15
                      A                      A                      A
 Frequencies --    439.5366               509.2792               520.6140
 Red. masses --      2.4416                 3.9459                 2.2352
 Frc consts  --      0.2779                 0.6030                 0.3569
 IR Inten    --      2.3644                13.0971                 1.7366

                     16                     17                     18
                      A                      A                      A
 Frequencies --    531.9312               576.8786               670.9790
 Red. masses --      2.4410                 3.2381                 2.4989
 Frc consts  --      0.4069                 0.6349                 0.6629
 IR Inten    --      5.7471                17.9788                 6.7876

                     19                     20                     21
                      A                      A                      A
 Frequencies --    747.4907               833.5250               842.3065
 Red. masses --      2.5530                 1.7418                 2.7064
 Frc consts  --      0.8405                 0.7130                 1.1313
 IR Inten    --      0.6335                 2.8399                11.9321

                     22                     23                     24
                      A                      A                      A
 Frequencies --    852.5978               868.7233               878.9363
 Red. masses --      3.3825                 1.8662                 1.8072
 Frc consts  --      1.4487                 0.8298                 0.8226
 IR Inten    --      0.5677                 9.0689                11.7000

                     25                     26                     27
                      A                      A                      A
 Frequencies --    900.8387               904.7319               911.4903
 Red. masses --      2.4153                 2.3970                 2.3896
 Frc consts  --      1.1548                 1.1560                 1.1697
 IR Inten    --     20.6321                 7.4243                94.1305

                     28                     29                     30
                      A                      A                      A
 Frequencies --    936.7724               947.6387              1014.2900
 Red. masses --      1.8998                 1.5896                 1.7384
 Frc consts  --      0.9822                 0.8410                 1.0537
 IR Inten    --      4.3364                15.3609                38.6509

                     31                     32                     33
                      A                      A                      A
 Frequencies --   1033.9285              1040.8957              1056.2955
 Red. masses --      2.3743                 2.1305                 1.9789
 Frc consts  --      1.4954                 1.3600                 1.3009
 IR Inten    --      8.8753                17.5455                32.3382

                     34                     35                     36
                      A                      A                      A
 Frequencies --   1063.8150              1068.1299              1083.7873
 Red. masses --      1.7019                 1.6862                 2.3158
 Frc consts  --      1.1348                 1.1334                 1.6026
 IR Inten    --     27.8073                30.5188               312.1854

                     37                     38                     39
                      A                      A                      A
 Frequencies --   1093.2623              1141.0221              1162.0190
 Red. masses --      1.6974                 2.6601                 2.3865
 Frc consts  --      1.1953                 2.0405                 1.8986
 IR Inten    --     61.1617               226.7499                27.3280

                     40                     41                     42
                      A                      A                      A
 Frequencies --   1178.4222              1192.5881              1214.6726
 Red. masses --      2.4684                 3.2336                 1.5148
 Frc consts  --      2.0196                 2.7097                 1.3168
 IR Inten    --     53.5297               158.5493                24.8361

                     43                     44                     45
                      A                      A                      A
 Frequencies --   1223.7156              1237.6054              1241.3271
 Red. masses --      1.3519                 1.8137                 1.7847
 Frc consts  --      1.1928                 1.6367                 1.6203
 IR Inten    --     37.9616                48.8720               120.1611

                     46                     47                     48
                      A                      A                      A
 Frequencies --   1283.7463              1298.9885              1316.7441
 Red. masses --      1.2147                 1.1500                 1.1534
 Frc consts  --      1.1795                 1.1433                 1.1783
 IR Inten    --     40.2796                 3.7165                17.5247

                     49                     50                     51
                      A                      A                      A
 Frequencies --   1336.0929              1354.9033              1358.4841
 Red. masses --      1.2354                 1.3436                 1.4119
 Frc consts  --      1.2993                 1.4533                 1.5352
 IR Inten    --     18.0384                24.0600                 2.7500

                     52                     53                     54
                      A                      A                      A
 Frequencies --   1367.1228              1382.3145              1386.7391
 Red. masses --      1.5383                 1.4016                 1.4777
 Frc consts  --      1.6940                 1.5779                 1.6743
 IR Inten    --      4.3363                15.2145                21.9141

                     55                     56                     57
                      A                      A                      A
 Frequencies --   1389.8870              1393.9613              1403.8735
 Red. masses --      1.5525                 1.5466                 1.3286
 Frc consts  --      1.7670                 1.7706                 1.5428
 IR Inten    --      7.4365                27.4267                 1.9336

                     58                     59                     60
                      A                      A                      A
 Frequencies --   1408.5501              1427.3782              1432.6341
 Red. masses --      1.4166                 1.3657                 1.5263
 Frc consts  --      1.6559                 1.6394                 1.8458
 IR Inten    --     11.9415                18.1695                 8.1094

                     61                     62                     63
                      A                      A                      A
 Frequencies --   1439.9426              1467.1098              1471.2960
 Red. masses --      1.3102                 1.0902                 1.1107
 Frc consts  --      1.6006                 1.3825                 1.4166
 IR Inten    --     18.5085                 6.4419                 5.3284

                     64                     65                     66
                      A                      A                      A
 Frequencies --   1473.7579              1477.0808              1487.9835
 Red. masses --      1.0870                 1.1199                 1.0905
 Frc consts  --      1.3910                 1.4396                 1.4225
 IR Inten    --      9.6682                18.5404                 5.0986

                     67                     68                     69
                      A                      A                      A
 Frequencies --   1490.9744              1505.1504              1506.0444
 Red. masses --      1.1189                 1.0984                 1.0943
 Frc consts  --      1.4655                 1.4662                 1.4624
 IR Inten    --     17.1354                 5.8317                 5.7476

                     70                     71                     72
                      A                      A                      A
 Frequencies --   3030.2206              3045.7521              3061.0425
 Red. masses --      1.0700                 1.0673                 1.0687
 Frc consts  --      5.7887                 5.8333                 5.8997
 IR Inten    --     75.5887                56.7809                33.1237

                     73                     74                     75
                      A                      A                      A
 Frequencies --   3067.1702              3069.2863              3072.5760
 Red. masses --      1.0634                 1.0625                 1.0637
 Frc consts  --      5.8939                 5.8975                 5.9166
 IR Inten    --     57.3215                25.8812                41.2430

                     76                     77                     78
                      A                      A                      A
 Frequencies --   3077.6462              3077.8631              3087.6366
 Red. masses --      1.0627                 1.0678                 1.0794
 Frc consts  --      5.9304                 5.9600                 6.0630
 IR Inten    --     28.9625                 7.4235                72.3068

                     79                     80                     81
                      A                      A                      A
 Frequencies --   3098.4817              3114.1245              3116.4455
 Red. masses --      1.0855                 1.1012                 1.0976
 Frc consts  --      6.1399                 6.2922                 6.2810
 IR Inten    --     52.8296                36.8510                35.2877

                     82                     83                     84
                      A                      A                      A
 Frequencies --   3120.8912              3124.2559              3131.4035
 Red. masses --      1.1025                 1.1035                 1.1038
 Frc consts  --      6.3269                 6.3462                 6.3771
 IR Inten    --     68.4434                56.3700                46.4024

                     85                     86                     87
                      A                      A                      A
 Frequencies --   3134.7738              3137.9306              3140.4450
 Red. masses --      1.0976                 1.0963                 1.0993
 Frc consts  --      6.3551                 6.3604                 6.3880
 IR Inten    --     39.2489                41.2568                40.4485

 - Thermochemistry -
 -------------------
 Temperature   298.150 Kelvin.  Pressure   1.00000 Atm.
 Atom     1 has atomic number  6 and mass  12.00000

 Molecular mass:   186.12559 amu.
 Principal axes and moments of inertia in atomic units:
                           1         2         3
     Eigenvalues --  1092.790183914.720964036.84152
           X            0.99986   0.00912  -0.01422
           Y           -0.00805   0.99725   0.07374
           Z            0.01485  -0.07361   0.99718
 This molecule is an asymmetric top.
 Rotational symmetry number  1.
 Warning -- assumption of classical behavior for rotation
           may cause significant error
 Rotational temperatures (Kelvin)      0.07926     0.02213     0.02146
 Rotational constants (GHZ):           1.65150     0.46101     0.44707
 Zero-point vibrational energy     737644.7 (Joules/Mol)
                                  176.30131 (Kcal/Mol)
 Warning -- explicit consideration of  17 degrees of freedom as
           vibrations may cause significant error
 Vibrational temperatures:     46.13    81.71   111.38   211.07   240.99
          (Kelvin)            348.70   360.72   407.77   485.42   565.06
                              593.13   628.03   632.40   732.74   749.05
                              765.33   830.00   965.39  1075.47  1199.26
                             1211.89  1226.70  1249.90  1264.59  1296.11
                             1301.71  1311.43  1347.81  1363.44  1459.34
                             1487.59  1497.62  1519.77  1530.59  1536.80
                             1559.33  1572.96  1641.68  1671.89  1695.49
                             1715.87  1747.64  1760.65  1780.64  1785.99
                             1847.02  1868.95  1894.50  1922.34  1949.40
                             1954.56  1966.98  1988.84  1995.21  1999.74
                             2005.60  2019.86  2026.59  2053.68  2061.24
                             2071.76  2110.84  2116.87  2120.41  2125.19
                             2140.88  2145.18  2165.58  2166.86  4359.81
                             4382.16  4404.16  4412.97  4416.02  4420.75
                             4428.05  4428.36  4442.42  4458.02  4480.53
                             4483.87  4490.27  4495.11  4505.39  4510.24
                             4514.78  4518.40

 Zero-point correction=                           0.280954 (Hartree/Particle)
 Thermal correction to Energy=                    0.292625
 Thermal correction to Enthalpy=                  0.293570
 Thermal correction to Gibbs Free Energy=         0.242364
 Sum of electronic and zero-point Energies=           -617.228033
 Sum of electronic and thermal Energies=              -617.216361
 Sum of electronic and thermal Enthalpies=            -617.215417
 Sum of electronic and thermal Free Energies=         -617.266622

                     E (Thermal)             CV                S
                      KCal/Mol        Cal/Mol-Kelvin    Cal/Mol-Kelvin
 Total                  183.625             46.446            107.770
 Electronic               0.000              0.000              0.000
 Translational            0.889              2.981             41.570
 Rotational               0.889              2.981             31.224
 Vibrational            181.848             40.484             34.976
 Vibration     1          0.594              1.983              5.698
 Vibration     2          0.596              1.975              4.566
 Vibration     3          0.599              1.964              3.955
 Vibration     4          0.617              1.906              2.715
 Vibration     5          0.624              1.882              2.463
 Vibration     6          0.659              1.775              1.785
 Vibration     7          0.663              1.762              1.726
 Vibration     8          0.682              1.704              1.513
 Vibration     9          0.718              1.601              1.224
 Vibration    10          0.760              1.486              0.990
 Vibration    11          0.776              1.444              0.919
 Vibration    12          0.797              1.391              0.838
 Vibration    13          0.800              1.384              0.828
 Vibration    14          0.864              1.229              0.635
 Vibration    15          0.876              1.204              0.609
 Vibration    16          0.887              1.179              0.583
 Vibration    17          0.933              1.081              0.491

 Optimization completed.
    -- Stationary point found.
 Normal termination of Gaussian 16 at Fri Mar  8 23:23:26 2019.
