 Gaussian 16, Revision B.01,
 Gaussian 16:  ES64L-G16RevB.01 20-Dec-2017

 ----------------------------------------------------------------------
 #M062X/6-311++G(2d,2p) opt=ModRedundant freq=noraman SCRF=(SMD,solvent
 =water)
 ----------------------------------------------------------------------

 --------------------------------
 4c1_a1_a4_4c1_PSI.inp_extract_15
 --------------------------------
 Symbolic Z-matrix:
 Charge =  0 Multiplicity = 1

 SCF Done:  E(RM062X) =  -617.499304864     A.U. after   13 cycles
 SCF Done:  E(RM062X) =  -617.499901089     A.U. after   11 cycles
 SCF Done:  E(RM062X) =  -617.501451933     A.U. after   11 cycles
 SCF Done:  E(RM062X) =  -617.501729400     A.U. after   10 cycles
 SCF Done:  E(RM062X) =  -617.501876066     A.U. after    9 cycles
 SCF Done:  E(RM062X) =  -617.501880979     A.U. after    8 cycles
 SCF Done:  E(RM062X) =  -617.501881465     A.U. after    7 cycles
 SCF Done:  E(RM062X) =  -617.501881519     A.U. after    7 cycles
 Optimization completed.
    -- Stationary point found.
 Normal termination of Gaussian 16 at Sat Mar  9 02:17:54 2019.

 ----------------------------------------------------------------------
 #N Geom=AllCheck Guess=TCheck SCRF=Check GenChk RM062X/6-311++G(2d,2p)
  Freq
 ----------------------------------------------------------------------

 Structure from the checkpoint file:  "4c1_a1_a4_4c1_PSI.inp_extract_15.chk"
 --------------------------------
 4c1_a1_a4_4c1_PSI.inp_extract_15
 --------------------------------
 Charge =  0 Multiplicity = 1

                         Standard orientation:
 ---------------------------------------------------------------------
 Center     Atomic      Atomic             Coordinates (Angstroms)
 Number     Number       Type             X           Y           Z
 ---------------------------------------------------------------------
      1          6           0       -2.169068   -1.219270    0.728717
      2          6           0        0.686741   -0.335121   -0.514619
      3          6           0       -1.096042   -0.246332    1.195051
      4          6           0        3.397778    0.495699    0.017848
      5          6           0       -3.073138    0.247476   -0.866140
      6          8           0       -2.510847   -1.044378   -0.640221
      7          6           0        3.039836   -0.987225    0.089436
      8          6           0        2.169751    1.338527    0.310663
      9          6           0        1.848091   -1.266935   -0.824604
     10          6           0       -2.063297    1.343852   -0.573972
     11          8           0        1.093886    1.018772   -0.577743
     12          8           0        0.201784   -0.681673    0.762068
     13          6           0       -1.504019    1.186796    0.841596
     14          1           0       -3.063675   -1.080227    1.346876
     15          1           0       -1.819256   -2.243941    0.839618
     16          1           0       -0.098570   -0.432205   -1.261315
     17          1           0       -1.036938   -0.327958    2.280491
     18          1           0        3.764220    0.738782   -0.982575
     19          1           0        4.183235    0.748261    0.730763
     20          1           0       -3.392960    0.267191   -1.905842
     21          1           0       -3.956260    0.362428   -0.226957
     22          1           0        2.788520   -1.252405    1.118509
     23          1           0        3.888294   -1.604154   -0.204875
     24          1           0        2.365695    2.398239    0.161666
     25          1           0        1.842110    1.192637    1.343610
     26          1           0        2.134159   -1.094261   -1.863782
     27          1           0        1.505239   -2.297338   -0.738425
     28          1           0       -2.556527    2.311903   -0.669195
     29          1           0       -1.269717    1.313663   -1.319125
     30          1           0       -0.677897    1.871078    1.025556
     31          1           0       -2.298055    1.441736    1.548319
 ---------------------------------------------------------------------

 SCF Done:  E(RM062X) =  -617.501881519     A.U. after    1 cycles

 The electronic state is 1-A.
 Alpha  occ. eigenvalues --  -19.62874 -19.62845 -19.62695 -10.62870 -10.58438
 Alpha  occ. eigenvalues --  -10.57360 -10.57291 -10.57158 -10.52650 -10.52307
 Alpha  occ. eigenvalues --  -10.52268 -10.52195 -10.52136  -1.19326  -1.16104
 Alpha  occ. eigenvalues --   -1.12777  -0.90310  -0.88797  -0.86912  -0.84022
 Alpha  occ. eigenvalues --   -0.74389  -0.73493  -0.72473  -0.70437  -0.65985
 Alpha  occ. eigenvalues --   -0.61933  -0.59104  -0.58005  -0.56386  -0.54412
 Alpha  occ. eigenvalues --   -0.54099  -0.52329  -0.51855  -0.50309  -0.49421
 Alpha  occ. eigenvalues --   -0.48029  -0.46045  -0.45636  -0.45020  -0.44725
 Alpha  occ. eigenvalues --   -0.43323  -0.42264  -0.40044  -0.39577  -0.38697
 Alpha  occ. eigenvalues --   -0.37748  -0.37014  -0.36289  -0.35047  -0.32877
 Alpha  occ. eigenvalues --   -0.31100
 Alpha virt. eigenvalues --    0.00294   0.01218   0.01379   0.01611   0.02762
 Alpha virt. eigenvalues --    0.03054   0.03138   0.03647   0.03891   0.05213
 Alpha virt. eigenvalues --    0.05261   0.05488   0.06059   0.06134   0.07709

 Mulliken charges:
               1
     1  C   -0.344627
     2  C   -0.064275
     3  C    0.221371
     4  C   -0.430944
     5  C   -0.312135
     6  O   -0.346999
     7  C   -0.273108
     8  C   -0.093616
     9  C   -0.674266
    10  C   -0.151823
    11  O   -0.262666
    12  O   -0.353788
    13  C   -0.587904
    14  H    0.184802
    15  H    0.209694
    16  H    0.319043
    17  H    0.256333
    18  H    0.164062
    19  H    0.182825
    20  H    0.202182
    21  H    0.168923
    22  H    0.178092
    23  H    0.193453
    24  H    0.213075
    25  H    0.150802
    26  H    0.200924
    27  H    0.189109
    28  H    0.211958
    29  H    0.215100
    30  H    0.165568
    31  H    0.268834
 Sum of Mulliken charges =  -0.00000

 Dipole moment (field-independent basis, Debye):
    X=             -0.2044    Y=              1.4612    Z=              1.7401  Tot=              2.2814
 Quadrupole moment (field-independent basis, Debye-Ang):
   XX=            -70.6654   YY=            -81.3442   ZZ=            -78.5672
   XY=             -4.4087   XZ=             -3.6604   YZ=              0.5926

  Exact polarizability: 178.934   0.175 172.806  -0.114  -0.950 170.922
 Approx polarizability: 143.770  -0.297 142.361  -0.249  -1.093 143.983

                      1                      2                      3
                      A                      A                      A
 Frequencies --     50.8341                56.2552               103.1897
 Red. masses --      3.6334                 4.0895                 3.5293
 Frc consts  --      0.0055                 0.0076                 0.0221
 IR Inten    --      2.3594                 3.8349                 3.2018

                      4                      5                      6
                      A                      A                      A
 Frequencies --    124.2823               199.2170               217.3512
 Red. masses --      3.9839                 3.0683                 3.0686
 Frc consts  --      0.0363                 0.0717                 0.0854
 IR Inten    --      4.9904                 4.8816                 4.3969

                      7                      8                      9
                      A                      A                      A
 Frequencies --    258.8003               301.4920               346.3292
 Red. masses --      2.8742                 2.1199                 2.5811
 Frc consts  --      0.1134                 0.1135                 0.1824
 IR Inten    --      1.2526                 4.8984                 6.0154

                     10                     11                     12
                      A                      A                      A
 Frequencies --    356.1719               407.6491               437.0231
 Red. masses --      2.2300                 2.0939                 3.4444
 Frc consts  --      0.1667                 0.2050                 0.3876
 IR Inten    --      0.4372                13.4856                26.2571

                     13                     14                     15
                      A                      A                      A
 Frequencies --    441.8740               478.5385               523.8217
 Red. masses --      2.3416                 3.9697                 2.4232
 Frc consts  --      0.2694                 0.5356                 0.3917
 IR Inten    --      3.7862                 7.3659                 6.0435

                     16                     17                     18
                      A                      A                      A
 Frequencies --    536.2134               595.0298               676.5450
 Red. masses --      1.8548                 3.3495                 2.9863
 Frc consts  --      0.3142                 0.6987                 0.8053
 IR Inten    --      1.1415                27.1192                 5.5402

                     19                     20                     21
                      A                      A                      A
 Frequencies --    755.7143               797.1503               836.9298
 Red. masses --      2.2933                 2.9995                 1.5557
 Frc consts  --      0.7717                 1.1230                 0.6420
 IR Inten    --      6.3608                 3.5494                 0.8841

                     22                     23                     24
                      A                      A                      A
 Frequencies --    847.1268               857.5795               873.1389
 Red. masses --      3.2212                 1.7311                 2.6139
 Frc consts  --      1.3620                 0.7501                 1.1741
 IR Inten    --      5.6630                15.1486                19.9442

                     25                     26                     27
                      A                      A                      A
 Frequencies --    899.0602               901.2751               912.4856
 Red. masses --      2.4076                 2.4355                 2.3999
 Frc consts  --      1.1466                 1.1656                 1.1773
 IR Inten    --     29.2374                51.4103                23.6997

                     28                     29                     30
                      A                      A                      A
 Frequencies --    930.2490               966.3603               985.8622
 Red. masses --      1.7463                 1.7431                 2.0490
 Frc consts  --      0.8904                 0.9591                 1.1733
 IR Inten    --     15.5932                 8.4564                57.2776

                     31                     32                     33
                      A                      A                      A
 Frequencies --   1034.8021              1038.4086              1058.9972
 Red. masses --      2.0708                 2.2372                 1.7850
 Frc consts  --      1.3065                 1.4213                 1.1795
 IR Inten    --     33.1935                17.5233                10.5681

                     34                     35                     36
                      A                      A                      A
 Frequencies --   1064.5540              1065.5363              1082.9618
 Red. masses --      1.7411                 1.6539                 2.1890
 Frc consts  --      1.1626                 1.1064                 1.5126
 IR Inten    --     26.3392                36.1810               219.0238

                     37                     38                     39
                      A                      A                      A
 Frequencies --   1095.0193              1151.3117              1159.7995
 Red. masses --      1.6583                 3.0641                 2.6034
 Frc consts  --      1.1715                 2.3929                 2.0633
 IR Inten    --     84.8346               109.2989                90.0590

                     40                     41                     42
                      A                      A                      A
 Frequencies --   1165.4705              1200.4150              1207.2201
 Red. masses --      2.3889                 2.6523                 1.4476
 Frc consts  --      1.9118                 2.2518                 1.2430
 IR Inten    --     87.7904               132.9458                35.8361

                     43                     44                     45
                      A                      A                      A
 Frequencies --   1227.3797              1236.1216              1240.4105
 Red. masses --      1.4443                 1.7776                 1.7670
 Frc consts  --      1.2819                 1.6003                 1.6018
 IR Inten    --    116.3288                67.2606                62.9074

                     46                     47                     48
                      A                      A                      A
 Frequencies --   1280.9923              1313.1879              1315.6412
 Red. masses --      1.2209                 1.1532                 1.1849
 Frc consts  --      1.1804                 1.1716                 1.2084
 IR Inten    --     24.7994                20.8737                31.4478

                     49                     50                     51
                      A                      A                      A
 Frequencies --   1339.7081              1354.8903              1357.2334
 Red. masses --      1.2973                 1.5016                 1.3807
 Frc consts  --      1.3719                 1.6242                 1.4985
 IR Inten    --     42.6583                 8.5190                 1.9266

                     52                     53                     54
                      A                      A                      A
 Frequencies --   1368.8663              1381.9218              1384.5393
 Red. masses --      1.3854                 1.5171                 1.4945
 Frc consts  --      1.5295                 1.7070                 1.6880
 IR Inten    --      5.2419                 3.8998                 9.3249

                     55                     56                     57
                      A                      A                      A
 Frequencies --   1388.2694              1397.4925              1404.2696
 Red. masses --      1.6182                 1.2999                 1.3656
 Frc consts  --      1.8375                 1.4958                 1.5867
 IR Inten    --      9.9444                21.3649                 2.2115

                     58                     59                     60
                      A                      A                      A
 Frequencies --   1410.3184              1423.2004              1428.8699
 Red. masses --      1.4381                 1.2757                 1.3637
 Frc consts  --      1.6853                 1.5224                 1.6405
 IR Inten    --     21.7970                12.8041                 8.4478

                     61                     62                     63
                      A                      A                      A
 Frequencies --   1441.0417              1464.1144              1470.5996
 Red. masses --      1.3480                 1.1040                 1.1075
 Frc consts  --      1.6493                 1.3943                 1.4111
 IR Inten    --     38.2107                13.6632                 5.5725

                     64                     65                     66
                      A                      A                      A
 Frequencies --   1473.6331              1486.3989              1490.3107
 Red. masses --      1.0875                 1.0869                 1.1003
 Frc consts  --      1.3915                 1.4148                 1.4398
 IR Inten    --      8.3539                 4.2216                 5.3328

                     67                     68                     69
                      A                      A                      A
 Frequencies --   1492.4365              1503.9442              1504.9230
 Red. masses --      1.1140                 1.1010                 1.0938
 Frc consts  --      1.4619                 1.4672                 1.4596
 IR Inten    --     25.3081                 6.7332                 4.3036

                     70                     71                     72
                      A                      A                      A
 Frequencies --   3029.4350              3034.8534              3058.8027
 Red. masses --      1.0702                 1.0689                 1.0692
 Frc consts  --      5.7869                 5.8003                 5.8941
 IR Inten    --     74.6031                65.8444                43.5024

                     73                     74                     75
                      A                      A                      A
 Frequencies --   3065.4000              3066.8698              3071.7326
 Red. masses --      1.0632                 1.0689                 1.0630
 Frc consts  --      5.8864                 5.9234                 5.9093
 IR Inten    --     55.6205                20.5282                41.9671

                     76                     77                     78
                      A                      A                      A
 Frequencies --   3080.9270              3089.7015              3101.2292
 Red. masses --      1.0626                 1.0625                 1.0860
 Frc consts  --      5.9428                 5.9763                 6.1539
 IR Inten    --     29.5180                30.6604                57.4666

                     79                     80                     81
                      A                      A                      A
 Frequencies --   3115.4856              3119.8317              3128.9323
 Red. masses --      1.0973                 1.1026                 1.0970
 Frc consts  --      6.2751                 6.3230                 6.3277
 IR Inten    --     44.6431                69.9762                22.0731

                     82                     83                     84
                      A                      A                      A
 Frequencies --   3131.3257              3133.9086              3136.9912
 Red. masses --      1.1036                 1.0967                 1.0970
 Frc consts  --      6.3754                 6.3463                 6.3604
 IR Inten    --     46.7240                61.7699                53.9907

                     85                     86                     87
                      A                      A                      A
 Frequencies --   3137.8861              3139.5299              3143.8874
 Red. masses --      1.0966                 1.0952                 1.0921
 Frc consts  --      6.3617                 6.3600                 6.3598
 IR Inten    --      9.9339                16.6944                67.7872

 - Thermochemistry -
 -------------------
 Temperature   298.150 Kelvin.  Pressure   1.00000 Atm.
 Atom     1 has atomic number  6 and mass  12.00000

 Molecular mass:   186.12559 amu.
 Principal axes and moments of inertia in atomic units:
                           1         2         3
     Eigenvalues --  1073.963473457.143173772.59597
           X            0.99992  -0.01248  -0.00269
           Y            0.01252   0.99982   0.01400
           Z            0.00251  -0.01404   0.99990
 This molecule is an asymmetric top.
 Rotational symmetry number  1.
 Warning -- assumption of classical behavior for rotation
           may cause significant error
 Rotational temperatures (Kelvin)      0.08065     0.02505     0.02296
 Rotational constants (GHZ):           1.68045     0.52203     0.47838
 Zero-point vibrational energy     737889.5 (Joules/Mol)
                                  176.35982 (Kcal/Mol)
 Warning -- explicit consideration of  17 degrees of freedom as
           vibrations may cause significant error
 Vibrational temperatures:     73.14    80.94   148.47   178.81   286.63
          (Kelvin)            312.72   372.36   433.78   498.29   512.45
                              586.52   628.78   635.76   688.51   753.66
                              771.49   856.12   973.40  1087.30  1146.92
                             1204.16  1218.83  1233.87  1256.25  1293.55
                             1296.73  1312.86  1338.42  1390.38  1418.44
                             1488.85  1494.04  1523.66  1531.66  1533.07
                             1558.14  1575.49  1656.48  1668.69  1676.85
                             1727.13  1736.92  1765.93  1778.50  1784.67
                             1843.06  1889.38  1892.91  1927.54  1949.38
                             1952.76  1969.49  1988.28  1992.04  1997.41
                             2010.68  2020.43  2029.13  2047.67  2055.83
                             2073.34  2106.53  2115.86  2120.23  2138.60
                             2144.22  2147.28  2163.84  2165.25  4358.68
                             4366.48  4400.93  4410.43  4412.54  4419.54
                             4432.77  4445.39  4461.98  4482.49  4488.74
                             4501.84  4505.28  4509.00  4513.43  4514.72
                             4517.08  4523.35

 Zero-point correction=                           0.281047 (Hartree/Particle)
 Thermal correction to Energy=                    0.292672
 Thermal correction to Enthalpy=                  0.293616
 Thermal correction to Gibbs Free Energy=         0.243101
 Sum of electronic and zero-point Energies=           -617.220834
 Sum of electronic and thermal Energies=              -617.209210
 Sum of electronic and thermal Enthalpies=            -617.208265
 Sum of electronic and thermal Free Energies=         -617.258780

                     E (Thermal)             CV                S
                      KCal/Mol        Cal/Mol-Kelvin    Cal/Mol-Kelvin
 Total                  183.654             46.562            106.317
 Electronic               0.000              0.000              0.000
 Translational            0.889              2.981             41.570
 Rotational               0.889              2.981             31.016
 Vibrational            181.877             40.601             33.731
 Vibration     1          0.595              1.977              4.785
 Vibration     2          0.596              1.975              4.584
 Vibration     3          0.605              1.947              3.393
 Vibration     4          0.610              1.929              3.033
 Vibration     5          0.637              1.841              2.140
 Vibration     6          0.646              1.815              1.981
 Vibration     7          0.668              1.748              1.670
 Vibration     8          0.693              1.671              1.409
 Vibration     9          0.724              1.583              1.183
 Vibration    10          0.732              1.563              1.139
 Vibration    11          0.772              1.454              0.935
 Vibration    12          0.797              1.389              0.836
 Vibration    13          0.802              1.379              0.821
 Vibration    14          0.835              1.298              0.714
 Vibration    15          0.879              1.197              0.601
 Vibration    16          0.891              1.170              0.573
 Vibration    17          0.953              1.042              0.458

 Optimization completed.
    -- Stationary point found.
 Normal termination of Gaussian 16 at Sat Mar  9 03:26:57 2019.
