 Gaussian 16, Revision B.01,
 Gaussian 16:  ES64L-G16RevB.01 20-Dec-2017

 ----------------------------------------------------------------------
 #M062X/6-311++G(2d,2p) opt=ModRedundant freq=noraman SCRF=(SMD,solvent
 =water)
 ----------------------------------------------------------------------

 --------------------------------
 4c1_a1_a4_4c1_PSI.inp_extract_19
 --------------------------------
 Symbolic Z-matrix:
 Charge =  0 Multiplicity = 1

 SCF Done:  E(RM062X) =  -617.502240158     A.U. after   12 cycles
 SCF Done:  E(RM062X) =  -617.503586356     A.U. after   11 cycles
 SCF Done:  E(RM062X) =  -617.504110603     A.U. after   10 cycles
 SCF Done:  E(RM062X) =  -617.504299000     A.U. after   10 cycles
 SCF Done:  E(RM062X) =  -617.504316728     A.U. after    9 cycles
 SCF Done:  E(RM062X) =  -617.504318335     A.U. after    7 cycles
 SCF Done:  E(RM062X) =  -617.504318231     A.U. after    7 cycles
 Optimization completed.
    -- Stationary point found.
 Normal termination of Gaussian 16 at Sat Mar  9 03:30:41 2019.

 ----------------------------------------------------------------------
 #N Geom=AllCheck Guess=TCheck SCRF=Check GenChk RM062X/6-311++G(2d,2p)
  Freq
 ----------------------------------------------------------------------

 Structure from the checkpoint file:  "4c1_a1_a4_4c1_PSI.inp_extract_19.chk"
 --------------------------------
 4c1_a1_a4_4c1_PSI.inp_extract_19
 --------------------------------
 Charge =  0 Multiplicity = 1

                         Standard orientation:
 ---------------------------------------------------------------------
 Center     Atomic      Atomic             Coordinates (Angstroms)
 Number     Number       Type             X           Y           Z
 ---------------------------------------------------------------------
      1          6           0       -2.066035   -0.687883    1.331583
      2          6           0        0.843695    0.092060   -0.669049
      3          6           0       -1.007281    0.319863    0.926924
      4          6           0        3.570611    0.002741    0.262775
      5          6           0       -3.417376   -0.259267   -0.537839
      6          8           0       -2.723017   -1.256983    0.209305
      7          6           0        2.870512   -1.297581   -0.124729
      8          6           0        2.545297    1.023916    0.718742
      9          6           0        1.782098   -1.000449   -1.154106
     10          6           0       -2.446719    0.753964   -1.117591
     11          8           0        1.556304    1.259635   -0.290903
     12          8           0        0.112630   -0.422642    0.413864
     13          6           0       -1.603129    1.376725   -0.001643
     14          1           0       -2.799505   -0.190727    1.975382
     15          1           0       -1.610460   -1.508229    1.883127
     16          1           0        0.186573    0.418801   -1.470443
     17          1           0       -0.662765    0.819808    1.836962
     18          1           0        4.111618    0.402568   -0.598421
     19          1           0        4.292491   -0.159809    1.063669
     20          1           0       -3.960746   -0.783514   -1.321054
     21          1           0       -4.141000    0.235725    0.119956
     22          1           0        2.427053   -1.751236    0.764075
     23          1           0        3.582699   -2.014199   -0.532442
     24          1           0        3.001592    1.992445    0.911299
     25          1           0        2.052474    0.687361    1.634980
     26          1           0        2.238746   -0.646249   -2.080053
     27          1           0        1.194174   -1.886880   -1.389725
     28          1           0       -3.005221    1.527583   -1.645231
     29          1           0       -1.818315    0.247363   -1.851861
     30          1           0       -0.832757    2.035869   -0.395606
     31          1           0       -2.254025    1.988704    0.626842
 ---------------------------------------------------------------------

 SCF Done:  E(RM062X) =  -617.504318231     A.U. after    1 cycles

 The electronic state is 1-A.
 Alpha  occ. eigenvalues --  -19.63019 -19.62979 -19.62819 -10.62988 -10.58478
 Alpha  occ. eigenvalues --  -10.57541 -10.57344 -10.57188 -10.52821 -10.52417
 Alpha  occ. eigenvalues --  -10.52407 -10.52303 -10.52150  -1.19538  -1.16270
 Alpha  occ. eigenvalues --   -1.12762  -0.90405  -0.88983  -0.87174  -0.84093
 Alpha  occ. eigenvalues --   -0.74689  -0.73548  -0.72169  -0.70586  -0.65962
 Alpha  occ. eigenvalues --   -0.61672  -0.59519  -0.58484  -0.56410  -0.55004
 Alpha  occ. eigenvalues --   -0.53401  -0.52974  -0.52368  -0.50673  -0.49124
 Alpha  occ. eigenvalues --   -0.47044  -0.46256  -0.45821  -0.45395  -0.44878
 Alpha  occ. eigenvalues --   -0.43396  -0.42501  -0.40265  -0.39839  -0.38652
 Alpha  occ. eigenvalues --   -0.38176  -0.37310  -0.35614  -0.34295  -0.33394
 Alpha  occ. eigenvalues --   -0.32040
 Alpha virt. eigenvalues --    0.00314   0.01300   0.01328   0.01577   0.02749
 Alpha virt. eigenvalues --    0.02915   0.03132   0.03872   0.03882   0.05035
 Alpha virt. eigenvalues --    0.05169   0.05371   0.05879   0.06364   0.07454

 Mulliken charges:
               1
     1  C   -0.444007
     2  C   -0.028568
     3  C    0.081785
     4  C   -0.394823
     5  C   -0.239712
     6  O   -0.357345
     7  C   -0.313425
     8  C   -0.100578
     9  C   -0.525414
    10  C   -0.307582
    11  O   -0.327913
    12  O   -0.358727
    13  C   -0.260309
    14  H    0.200310
    15  H    0.206799
    16  H    0.323641
    17  H    0.238500
    18  H    0.165685
    19  H    0.180203
    20  H    0.210441
    21  H    0.159426
    22  H    0.177632
    23  H    0.188843
    24  H    0.210213
    25  H    0.143521
    26  H    0.195147
    27  H    0.192208
    28  H    0.181477
    29  H    0.141668
    30  H    0.206445
    31  H    0.254458
 Sum of Mulliken charges =  -0.00000

 Dipole moment (field-independent basis, Debye):
    X=             -0.0830    Y=              1.9700    Z=              0.4220  Tot=              2.0164
 Quadrupole moment (field-independent basis, Debye-Ang):
   XX=            -70.8593   YY=            -86.0339   ZZ=            -74.2458
   XY=             -9.2570   XZ=              1.3376   YZ=              2.4732

  Exact polarizability: 180.878  -0.659 168.888   2.039   1.412 173.183
 Approx polarizability: 144.598  -0.486 141.413   1.136   0.279 143.986

                      1                      2                      3
                      A                      A                      A
 Frequencies --     25.4390                61.7846               102.6850
 Red. masses --      3.8041                 3.9927                 3.7530
 Frc consts  --      0.0015                 0.0090                 0.0233
 IR Inten    --      1.3437                 4.9511                 7.0302

                      4                      5                      6
                      A                      A                      A
 Frequencies --    144.0170               187.0692               223.9859
 Red. masses --      4.0054                 3.0235                 3.0673
 Frc consts  --      0.0489                 0.0623                 0.0907
 IR Inten    --      0.6343                 0.9676                14.3100

                      7                      8                      9
                      A                      A                      A
 Frequencies --    259.3476               278.5410               350.4758
 Red. masses --      3.0383                 2.1208                 2.3173
 Frc consts  --      0.1204                 0.0969                 0.1677
 IR Inten    --      0.1137                 4.0586                 3.8322

                     10                     11                     12
                      A                      A                      A
 Frequencies --    390.1937               404.1834               433.2948
 Red. masses --      2.0374                 2.2995                 2.7315
 Frc consts  --      0.1828                 0.2213                 0.3021
 IR Inten    --      2.1051                15.5308                19.7926

                     13                     14                     15
                      A                      A                      A
 Frequencies --    442.7227               490.3536               520.3372
 Red. masses --      2.8743                 3.4655                 2.3062
 Frc consts  --      0.3319                 0.4909                 0.3679
 IR Inten    --      2.3297                 5.6881                 8.0080

                     16                     17                     18
                      A                      A                      A
 Frequencies --    540.4904               602.5441               680.9922
 Red. masses --      2.0835                 3.1759                 2.9248
 Frc consts  --      0.3586                 0.6793                 0.7992
 IR Inten    --      2.6125                 7.5272                 7.4221

                     19                     20                     21
                      A                      A                      A
 Frequencies --    743.9119               814.4590               835.8276
 Red. masses --      2.5038                 3.0701                 1.6184
 Frc consts  --      0.8164                 1.1999                 0.6662
 IR Inten    --      8.7298                11.6850                 0.4377

                     22                     23                     24
                      A                      A                      A
 Frequencies --    841.8753               870.0461               875.6242
 Red. masses --      3.2980                 2.1756                 1.7644
 Frc consts  --      1.3772                 0.9703                 0.7970
 IR Inten    --     18.1903                 9.9062                 9.1210

                     25                     26                     27
                      A                      A                      A
 Frequencies --    896.3868               907.3383               918.6096
 Red. masses --      2.5203                 2.6132                 2.2267
 Frc consts  --      1.1931                 1.2676                 1.1071
 IR Inten    --     23.9334                30.1798                48.2745

                     28                     29                     30
                      A                      A                      A
 Frequencies --    928.5904               957.7571               995.3931
 Red. masses --      1.8926                 1.6702                 2.0777
 Frc consts  --      0.9615                 0.9027                 1.2129
 IR Inten    --      7.6294                26.0967                48.2253

                     31                     32                     33
                      A                      A                      A
 Frequencies --   1031.6060              1041.0802              1058.4665
 Red. masses --      2.0131                 2.3194                 1.7375
 Frc consts  --      1.2622                 1.4812                 1.1469
 IR Inten    --     54.6121                27.2818               113.6898

                     34                     35                     36
                      A                      A                      A
 Frequencies --   1061.4964              1064.8579              1082.3578
 Red. masses --      1.9406                 1.7444                 2.2781
 Frc consts  --      1.2883                 1.1654                 1.5724
 IR Inten    --     34.3063                42.3131               179.6524

                     37                     38                     39
                      A                      A                      A
 Frequencies --   1098.4682              1149.8173              1162.4221
 Red. masses --      1.5535                 2.7253                 2.4921
 Frc consts  --      1.1044                 2.1229                 1.9840
 IR Inten    --     21.1447               172.6126                 7.7068

                     40                     41                     42
                      A                      A                      A
 Frequencies --   1169.9116              1199.4740              1209.9323
 Red. masses --      2.2692                 2.6514                 1.5262
 Frc consts  --      1.8299                 2.2475                 1.3164
 IR Inten    --     54.5286               149.9114                61.6489

                     43                     44                     45
                      A                      A                      A
 Frequencies --   1231.6377              1239.7079              1245.1135
 Red. masses --      1.6125                 1.5176                 1.7936
 Frc consts  --      1.4412                 1.3742                 1.6383
 IR Inten    --     61.8739               138.2047                43.3646

                     46                     47                     48
                      A                      A                      A
 Frequencies --   1283.9207              1307.5580              1315.1467
 Red. masses --      1.2350                 1.1449                 1.1456
 Frc consts  --      1.1995                 1.1533                 1.1675
 IR Inten    --     41.1925                32.4263                12.2704

                     49                     50                     51
                      A                      A                      A
 Frequencies --   1340.4954              1359.2013              1368.2606
 Red. masses --      1.2369                 1.3482                 1.3540
 Frc consts  --      1.3095                 1.4675                 1.4935
 IR Inten    --     26.1859                 4.5402                 4.0069

                     52                     53                     54
                      A                      A                      A
 Frequencies --   1373.1836              1381.1411              1386.0366
 Red. masses --      1.5407                 1.3897                 1.5357
 Frc consts  --      1.7117                 1.5619                 1.7382
 IR Inten    --      8.1179                12.3791                 8.1989

                     55                     56                     57
                      A                      A                      A
 Frequencies --   1394.1253              1400.8858              1407.0503
 Red. masses --      1.7063                 1.3329                 1.4261
 Frc consts  --      1.9540                 1.5412                 1.6635
 IR Inten    --     12.7153                 1.7741                 3.6596

                     58                     59                     60
                      A                      A                      A
 Frequencies --   1410.1632              1425.4235              1432.6412
 Red. masses --      1.3716                 1.3792                 1.3537
 Frc consts  --      1.6070                 1.6511                 1.6370
 IR Inten    --     11.0323                19.0568                15.0467

                     61                     62                     63
                      A                      A                      A
 Frequencies --   1436.0085              1470.1351              1473.4911
 Red. masses --      1.3535                 1.1072                 1.0881
 Frc consts  --      1.6445                 1.4100                 1.3919
 IR Inten    --     22.4169                 5.4577                 8.7177

                     64                     65                     66
                      A                      A                      A
 Frequencies --   1477.2200              1485.9827              1488.8611
 Red. masses --      1.0931                 1.1029                 1.0890
 Frc consts  --      1.4054                 1.4349                 1.4222
 IR Inten    --      5.7005                15.7418                 6.0487

                     67                     68                     69
                      A                      A                      A
 Frequencies --   1491.5536              1504.6351              1505.2417
 Red. masses --      1.1125                 1.0937                 1.1007
 Frc consts  --      1.4582                 1.4589                 1.4694
 IR Inten    --     21.1688                 2.5568                 7.5939

                     70                     71                     72
                      A                      A                      A
 Frequencies --   3033.6492              3044.2808              3053.5408
 Red. masses --      1.0697                 1.0721                 1.0789
 Frc consts  --      5.7999                 5.8541                 5.9273
 IR Inten    --     70.5901                 9.3591               133.3053

                     73                     74                     75
                      A                      A                      A
 Frequencies --   3058.7136              3065.6782              3071.9378
 Red. masses --      1.0695                 1.0636                 1.0629
 Frc consts  --      5.8954                 5.8895                 5.9096
 IR Inten    --     25.0015                44.3990                41.5688

                     76                     77                     78
                      A                      A                      A
 Frequencies --   3077.2098              3080.8758              3081.5300
 Red. masses --      1.0673                 1.0641                 1.0625
 Frc consts  --      5.9545                 5.9508                 5.9446
 IR Inten    --     10.4311                80.0130                 5.7980

                     79                     80                     81
                      A                      A                      A
 Frequencies --   3116.3531              3120.4563              3122.1833
 Red. masses --      1.0973                 1.1025                 1.1020
 Frc consts  --      6.2785                 6.3253                 6.3290
 IR Inten    --     45.0162                69.5733                54.1589

                     82                     83                     84
                      A                      A                      A
 Frequencies --   3131.4093              3137.0274              3138.9057
 Red. masses --      1.1035                 1.0963                 1.0984
 Frc consts  --      6.3754                 6.3563                 6.3761
 IR Inten    --     44.9309                40.7801                55.1390

                     85                     86                     87
                      A                      A                      A
 Frequencies --   3138.9683              3142.5658              3152.8328
 Red. masses --      1.0975                 1.0958                 1.0872
 Frc consts  --      6.3715                 6.3760                 6.3672
 IR Inten    --     22.5329                14.6640                51.4500

 - Thermochemistry -
 -------------------
 Temperature   298.150 Kelvin.  Pressure   1.00000 Atm.
 Atom     1 has atomic number  6 and mass  12.00000

 Molecular mass:   186.12559 amu.
 Principal axes and moments of inertia in atomic units:
                           1         2         3
     Eigenvalues --  1010.435523906.589334080.74823
           X            0.99986  -0.01654   0.00355
           Y            0.01635   0.99870   0.04828
           Z           -0.00435  -0.04821   0.99883
 This molecule is an asymmetric top.
 Rotational symmetry number  1.
 Warning -- assumption of classical behavior for rotation
           may cause significant error
 Rotational temperatures (Kelvin)      0.08572     0.02217     0.02123
 Rotational constants (GHZ):           1.78610     0.46197     0.44226
 Zero-point vibrational energy     738437.5 (Joules/Mol)
                                  176.49079 (Kcal/Mol)
 Warning -- explicit consideration of  17 degrees of freedom as
           vibrations may cause significant error
 Vibrational temperatures:     36.60    88.89   147.74   207.21   269.15
          (Kelvin)            322.27   373.14   400.76   504.26   561.40
                              581.53   623.41   636.98   705.51   748.65
                              777.65   866.93   979.80  1070.32  1171.82
                             1202.57  1211.27  1251.80  1259.83  1289.70
                             1305.46  1321.67  1336.03  1378.00  1432.15
                             1484.25  1497.88  1522.90  1527.26  1532.09
                             1557.27  1580.45  1654.33  1672.47  1683.24
                             1725.78  1740.82  1772.05  1783.66  1791.44
                             1847.28  1881.28  1892.20  1928.67  1955.59
                             1968.62  1975.70  1987.15  1994.20  2005.84
                             2015.56  2024.43  2028.91  2050.87  2061.25
                             2066.10  2115.20  2120.03  2125.39  2138.00
                             2142.14  2146.01  2164.83  2165.71  4364.74
                             4380.04  4393.36  4400.81  4410.83  4419.83
                             4427.42  4432.69  4433.63  4483.74  4489.64
                             4492.13  4505.40  4513.48  4516.19  4516.28
                             4521.45  4536.22

 Zero-point correction=                           0.281256 (Hartree/Particle)
 Thermal correction to Energy=                    0.292871
 Thermal correction to Enthalpy=                  0.293815
 Thermal correction to Gibbs Free Energy=         0.242806
 Sum of electronic and zero-point Energies=           -617.223062
 Sum of electronic and thermal Energies=              -617.211448
 Sum of electronic and thermal Enthalpies=            -617.210503
 Sum of electronic and thermal Free Energies=         -617.261512

                     E (Thermal)             CV                S
                      KCal/Mol        Cal/Mol-Kelvin    Cal/Mol-Kelvin
 Total                  183.779             46.422            107.357
 Electronic               0.000              0.000              0.000
 Translational            0.889              2.981             41.570
 Rotational               0.889              2.981             31.155
 Vibrational            182.002             40.460             34.632
 Vibration     1          0.593              1.985              6.157
 Vibration     2          0.597              1.973              4.399
 Vibration     3          0.605              1.947              3.403
 Vibration     4          0.616              1.909              2.750
 Vibration     5          0.632              1.858              2.257
 Vibration     6          0.649              1.805              1.927
 Vibration     7          0.668              1.747              1.666
 Vibration     8          0.679              1.713              1.543
 Vibration     9          0.727              1.574              1.164
 Vibration    10          0.758              1.491              0.999
 Vibration    11          0.769              1.461              0.947
 Vibration    12          0.794              1.398              0.848
 Vibration    13          0.802              1.377              0.818
 Vibration    14          0.846              1.271              0.683
 Vibration    15          0.875              1.205              0.609
 Vibration    16          0.896              1.161              0.564
 Vibration    17          0.961              1.026              0.445

 Optimization completed.
    -- Stationary point found.
 Normal termination of Gaussian 16 at Sat Mar  9 04:36:43 2019.
