 Gaussian 16, Revision B.01,
 Gaussian 16:  ES64L-G16RevB.01 20-Dec-2017

 ----------------------------------------------------------------------
 #M062X/6-311++G(2d,2p) opt=ModRedundant freq=noraman SCRF=(SMD,solvent
 =water)
 ----------------------------------------------------------------------

 -------------------------------
 4c1_a1_a4_4c1_PSI.inp_extract_4
 -------------------------------
 Symbolic Z-matrix:
 Charge =  0 Multiplicity = 1

 SCF Done:  E(RM062X) =  -617.506111278     A.U. after   12 cycles
 SCF Done:  E(RM062X) =  -617.508286365     A.U. after   11 cycles
 SCF Done:  E(RM062X) =  -617.508694997     A.U. after   11 cycles
 SCF Done:  E(RM062X) =  -617.508712009     A.U. after   11 cycles
 SCF Done:  E(RM062X) =  -617.508816742     A.U. after   10 cycles
 SCF Done:  E(RM062X) =  -617.508829789     A.U. after    9 cycles
 SCF Done:  E(RM062X) =  -617.508830273     A.U. after    7 cycles
 SCF Done:  E(RM062X) =  -617.508830830     A.U. after    7 cycles
 Optimization completed.
    -- Stationary point found.
 Normal termination of Gaussian 16 at Fri Mar  8 23:41:23 2019.

 ----------------------------------------------------------------------
 #N Geom=AllCheck Guess=TCheck SCRF=Check GenChk RM062X/6-311++G(2d,2p)
  Freq
 ----------------------------------------------------------------------

 Structure from the checkpoint file:  "4c1_a1_a4_4c1_PSI.inp_extract_4.chk"
 -------------------------------
 4c1_a1_a4_4c1_PSI.inp_extract_4
 -------------------------------
 Charge =  0 Multiplicity = 1

                         Standard orientation:
 ---------------------------------------------------------------------
 Center     Atomic      Atomic             Coordinates (Angstroms)
 Number     Number       Type             X           Y           Z
 ---------------------------------------------------------------------
      1          6           0       -1.473521    0.802670   -1.070579
      2          6           0        1.241298   -0.861586   -0.755489
      3          6           0       -1.155426   -0.675278   -0.865977
      4          6           0        2.897600    0.998520    0.695516
      5          6           0       -2.904642    0.894149    0.800634
      6          8           0       -1.763231    1.458030    0.156733
      7          6           0        2.588232   -0.365396    1.308315
      8          6           0        1.777762    1.404561   -0.244453
      9          6           0        2.312898   -1.371813    0.192846
     10          6           0       -2.673310   -0.568302    1.133610
     11          8           0        1.566862    0.418073   -1.262627
     12          8           0        0.013601   -0.871897   -0.065744
     13          6           0       -2.318811   -1.338238   -0.137270
     14          1           0       -2.338489    0.875222   -1.740164
     15          1           0       -0.638436    1.331548   -1.519080
     16          1           0        1.160159   -1.494204   -1.641979
     17          1           0       -0.999197   -1.137851   -1.844706
     18          1           0        3.834252    0.948502    0.134987
     19          1           0        3.010304    1.761806    1.465956
     20          1           0       -3.075349    1.487960    1.696212
     21          1           0       -3.772777    0.999742    0.139435
     22          1           0        1.713398   -0.283072    1.957151
     23          1           0        3.417421   -0.710202    1.925149
     24          1           0        2.010700    2.325202   -0.775272
     25          1           0        0.848828    1.553525    0.312538
     26          1           0        3.219500   -1.525784   -0.395085
     27          1           0        2.001483   -2.338273    0.587147
     28          1           0       -3.571666   -0.981179    1.592813
     29          1           0       -1.864188   -0.645889    1.862081
     30          1           0       -2.067949   -2.375232    0.084260
     31          1           0       -3.178332   -1.341187   -0.811256
 ---------------------------------------------------------------------

 SCF Done:  E(RM062X) =  -617.508830830     A.U. after    1 cycles

 The electronic state is 1-A.
 Alpha  occ. eigenvalues --  -19.63171 -19.62918 -19.62847 -10.63111 -10.58346
 Alpha  occ. eigenvalues --  -10.57267 -10.57192 -10.57170 -10.52539 -10.52401
 Alpha  occ. eigenvalues --  -10.52335 -10.52279 -10.52174  -1.19725  -1.16041
 Alpha  occ. eigenvalues --   -1.13135  -0.90538  -0.89136  -0.86560  -0.83993
 Alpha  occ. eigenvalues --   -0.73832  -0.73442  -0.72229  -0.71187  -0.65562
 Alpha  occ. eigenvalues --   -0.62416  -0.59758  -0.57505  -0.57113  -0.54862
 Alpha  occ. eigenvalues --   -0.54153  -0.52544  -0.51680  -0.49709  -0.49051
 Alpha  occ. eigenvalues --   -0.47808  -0.46852  -0.45654  -0.45221  -0.44490
 Alpha  occ. eigenvalues --   -0.43194  -0.42522  -0.40792  -0.39249  -0.38175
 Alpha  occ. eigenvalues --   -0.37899  -0.37273  -0.36071  -0.35487  -0.32880
 Alpha  occ. eigenvalues --   -0.31729
 Alpha virt. eigenvalues --    0.00349   0.01310   0.01336   0.01604   0.02744
 Alpha virt. eigenvalues --    0.03026   0.03196   0.03621   0.03909   0.05252
 Alpha virt. eigenvalues --    0.05389   0.05454   0.05793   0.06118   0.07763

 Mulliken charges:
               1
     1  C   -0.612193
     2  C   -0.040860
     3  C    0.231528
     4  C   -0.402480
     5  C   -0.192699
     6  O   -0.303254
     7  C   -0.310070
     8  C   -0.139402
     9  C   -0.391189
    10  C   -0.299750
    11  O   -0.329293
    12  O   -0.320108
    13  C   -0.468658
    14  H    0.204248
    15  H    0.262213
    16  H    0.252718
    17  H    0.245639
    18  H    0.173491
    19  H    0.180368
    20  H    0.208603
    21  H    0.166424
    22  H    0.167122
    23  H    0.195960
    24  H    0.225136
    25  H    0.158956
    26  H    0.197458
    27  H    0.187791
    28  H    0.191707
    29  H    0.165680
    30  H    0.184181
    31  H    0.210735
 Sum of Mulliken charges =  -0.00000

 Dipole moment (field-independent basis, Debye):
    X=             -1.1492    Y=             -1.9131    Z=             -0.1793  Tot=              2.2389
 Quadrupole moment (field-independent basis, Debye-Ang):
   XX=            -68.2697   YY=            -80.5353   ZZ=            -79.2376
   XY=              2.3239   XZ=              3.7172   YZ=              2.3199

  Exact polarizability: 178.952   0.968 172.528  -0.820   1.484 171.839
 Approx polarizability: 144.873   1.185 141.554  -1.110   1.180 143.586

                      1                      2                      3
                      A                      A                      A
 Frequencies --     34.2688                71.2352               112.4716
 Red. masses --      3.5738                 3.9373                 3.6132
 Frc consts  --      0.0025                 0.0118                 0.0269
 IR Inten    --      1.3430                 2.5026                 3.6924

                      4                      5                      6
                      A                      A                      A
 Frequencies --    142.1586               186.3147               241.3062
 Red. masses --      3.4639                 3.0123                 2.9554
 Frc consts  --      0.0412                 0.0616                 0.1014
 IR Inten    --      1.3884                 3.0364                11.1463

                      7                      8                      9
                      A                      A                      A
 Frequencies --    274.7966               286.5617               324.5054
 Red. masses --      4.6569                 2.3143                 1.9827
 Frc consts  --      0.2072                 0.1120                 0.1230
 IR Inten    --      7.7608                 9.8682                 2.4351

                     10                     11                     12
                      A                      A                      A
 Frequencies --    384.3063               397.3960               433.6376
 Red. masses --      2.2587                 2.1728                 2.9568
 Frc consts  --      0.1965                 0.2022                 0.3276
 IR Inten    --      8.3458                 4.3400                 3.8580

                     13                     14                     15
                      A                      A                      A
 Frequencies --    451.5110               483.2988               528.7665
 Red. masses --      2.3675                 3.8119                 2.4278
 Frc consts  --      0.2844                 0.5246                 0.3999
 IR Inten    --     12.0794                 5.1098                 3.6882

                     16                     17                     18
                      A                      A                      A
 Frequencies --    532.5081               601.1062               692.0904
 Red. masses --      2.0322                 3.0050                 3.0181
 Frc consts  --      0.3395                 0.6397                 0.8517
 IR Inten    --      2.2667                17.6379                20.5878

                     19                     20                     21
                      A                      A                      A
 Frequencies --    737.9239               834.7110               841.0197
 Red. masses --      2.5137                 1.7239                 2.9000
 Frc consts  --      0.8065                 0.7077                 1.2085
 IR Inten    --      4.8316                 1.8125                 8.9756

                     22                     23                     24
                      A                      A                      A
 Frequencies --    852.0372               866.5072               879.0560
 Red. masses --      3.2999                 2.0913                 1.6232
 Frc consts  --      1.4115                 0.9252                 0.7390
 IR Inten    --      5.7668                11.0736                15.0598

                     25                     26                     27
                      A                      A                      A
 Frequencies --    900.3669               904.6553               907.7085
 Red. masses --      2.4820                 2.2641                 2.4582
 Frc consts  --      1.1855                 1.0917                 1.1933
 IR Inten    --     59.7558                23.1650                29.9300

                     28                     29                     30
                      A                      A                      A
 Frequencies --    937.9331               946.2414              1008.4380
 Red. masses --      1.7607                 1.7072                 1.6702
 Frc consts  --      0.9126                 0.9006                 1.0007
 IR Inten    --      8.7054                18.6516                20.6330

                     31                     32                     33
                      A                      A                      A
 Frequencies --   1033.1311              1043.8579              1054.1686
 Red. masses --      2.2689                 2.3494                 1.7797
 Frc consts  --      1.4268                 1.5083                 1.1652
 IR Inten    --     13.8856                10.0358                 8.0630

                     34                     35                     36
                      A                      A                      A
 Frequencies --   1062.5104              1069.9070              1082.2528
 Red. masses --      1.8207                 1.6316                 1.8120
 Frc consts  --      1.2110                 1.1004                 1.2504
 IR Inten    --     30.5856                15.6146               175.4959

                     37                     38                     39
                      A                      A                      A
 Frequencies --   1100.0348              1145.3739              1159.8231
 Red. masses --      1.8346                 2.8725                 2.5207
 Frc consts  --      1.3080                 2.2203                 1.9978
 IR Inten    --    147.3410               167.9557                85.2627

                     40                     41                     42
                      A                      A                      A
 Frequencies --   1181.9327              1196.9268              1211.1134
 Red. masses --      2.3386                 3.4429                 1.4273
 Frc consts  --      1.9249                 2.9061                 1.2334
 IR Inten    --     32.7696               224.7515                13.3730

                     43                     44                     45
                      A                      A                      A
 Frequencies --   1228.0547              1239.5552              1243.6647
 Red. masses --      1.4420                 1.8072                 1.8731
 Frc consts  --      1.2813                 1.6360                 1.7069
 IR Inten    --     89.7540                80.6874                74.6075

                     46                     47                     48
                      A                      A                      A
 Frequencies --   1284.7111              1296.2767              1320.7798
 Red. masses --      1.2307                 1.1349                 1.1570
 Frc consts  --      1.1968                 1.1236                 1.1892
 IR Inten    --     53.1305                 2.0420                17.9521

                     49                     50                     51
                      A                      A                      A
 Frequencies --   1333.5704              1351.4847              1357.5926
 Red. masses --      1.2468                 1.3841                 1.4306
 Frc consts  --      1.3064                 1.4895                 1.5534
 IR Inten    --     16.4909                32.1306                 3.9910

                     52                     53                     54
                      A                      A                      A
 Frequencies --   1366.6814              1374.9933              1384.7867
 Red. masses --      1.5143                 1.3028                 1.5006
 Frc consts  --      1.6664                 1.4512                 1.6955
 IR Inten    --      0.0388                51.5618                 5.6554

                     55                     56                     57
                      A                      A                      A
 Frequencies --   1389.9666              1392.3196              1404.4208
 Red. masses --      1.5537                 1.6322                 1.4171
 Frc consts  --      1.7686                 1.8642                 1.6468
 IR Inten    --      1.8442                38.1149                 5.3321

                     58                     59                     60
                      A                      A                      A
 Frequencies --   1405.4388              1424.4646              1428.9938
 Red. masses --      1.3460                 1.3751                 1.4763
 Frc consts  --      1.5664                 1.6440                 1.7762
 IR Inten    --      5.6376                 9.4667                17.9399

                     61                     62                     63
                      A                      A                      A
 Frequencies --   1443.8313              1470.8889              1471.0689
 Red. masses --      1.3031                 1.1076                 1.0875
 Frc consts  --      1.6005                 1.4118                 1.3866
 IR Inten    --     17.9992                 6.5595                 6.5417

                     64                     65                     66
                      A                      A                      A
 Frequencies --   1474.2373              1480.9026              1490.3991
 Red. masses --      1.0885                 1.1184                 1.1189
 Frc consts  --      1.3938                 1.4451                 1.4643
 IR Inten    --      8.0545                16.5548                18.9763

                     67                     68                     69
                      A                      A                      A
 Frequencies --   1497.8162              1506.1539              1506.9890
 Red. masses --      1.0816                 1.1021                 1.0938
 Frc consts  --      1.4297                 1.4730                 1.4635
 IR Inten    --      2.5278                13.2219                 2.6965

                     70                     71                     72
                      A                      A                      A
 Frequencies --   3027.8525              3036.0324              3062.1076
 Red. masses --      1.0701                 1.0719                 1.0679
 Frc consts  --      5.7804                 5.8212                 5.8998
 IR Inten    --     77.1805                55.2113                26.7086

                     73                     74                     75
                      A                      A                      A
 Frequencies --   3062.5406              3068.8023              3070.0696
 Red. masses --      1.0809                 1.0646                 1.0618
 Frc consts  --      5.9730                 5.9072                 5.8965
 IR Inten    --     35.1795                30.5408                64.7332

                     76                     77                     78
                      A                      A                      A
 Frequencies --   3075.7703              3077.2240              3077.7320
 Red. masses --      1.0683                 1.0624                 1.0718
 Frc consts  --      5.9544                 5.9275                 5.9816
 IR Inten    --     38.6262                31.8394                24.9803

                     79                     80                     81
                      A                      A                      A
 Frequencies --   3087.1855              3115.7085              3119.6485
 Red. masses --      1.0753                 1.0972                 1.1025
 Frc consts  --      6.0379                 6.2755                 6.3218
 IR Inten    --     91.8179                33.9047                72.5891

                     82                     83                     84
                      A                      A                      A
 Frequencies --   3120.0999              3125.6370              3132.7562
 Red. masses --      1.1002                 1.1043                 1.1034
 Frc consts  --      6.3102                 6.3563                 6.3805
 IR Inten    --     33.6336                60.8351                43.9077

                     85                     86                     87
                      A                      A                      A
 Frequencies --   3137.1816              3139.3156              3174.6164
 Red. masses --      1.0958                 1.1008                 1.0926
 Frc consts  --      6.3544                 6.3916                 6.4875
 IR Inten    --     47.3940                39.5212                16.5291

 - Thermochemistry -
 -------------------
 Temperature   298.150 Kelvin.  Pressure   1.00000 Atm.
 Atom     1 has atomic number  6 and mass  12.00000

 Molecular mass:   186.12559 amu.
 Principal axes and moments of inertia in atomic units:
                           1         2         3
     Eigenvalues --  1224.430163370.614493606.13845
           X            0.99993   0.00730   0.00888
           Y           -0.00736   0.99994   0.00764
           Z           -0.00882  -0.00771   0.99993
 This molecule is an asymmetric top.
 Rotational symmetry number  1.
 Warning -- assumption of classical behavior for rotation
           may cause significant error
 Rotational temperatures (Kelvin)      0.07074     0.02570     0.02402
 Rotational constants (GHZ):           1.47394     0.53543     0.50046
 Zero-point vibrational energy     738192.8 (Joules/Mol)
                                  176.43231 (Kcal/Mol)
 Warning -- explicit consideration of  17 degrees of freedom as
           vibrations may cause significant error
 Vibrational temperatures:     49.31   102.49   161.82   204.53   268.07
          (Kelvin)            347.19   395.37   412.30   466.89   552.93
                              571.76   623.91   649.62   695.36   760.78
                              766.16   864.86   995.76  1061.71  1200.96
                             1210.04  1225.89  1246.71  1264.77  1295.43
                             1301.60  1305.99  1349.48  1361.43  1450.92
                             1486.45  1501.88  1516.71  1528.72  1539.36
                             1557.12  1582.70  1647.94  1668.73  1700.54
                             1722.11  1742.52  1766.90  1783.44  1789.36
                             1848.41  1865.05  1900.31  1918.71  1944.48
                             1953.27  1966.35  1978.31  1992.40  1999.85
                             2003.24  2020.65  2022.11  2049.49  2056.00
                             2077.35  2116.28  2116.54  2121.10  2130.69
                             2144.35  2155.02  2167.02  2168.22  4356.40
                             4368.17  4405.69  4406.31  4415.32  4417.15
                             4425.35  4427.44  4428.17  4441.77  4482.81
                             4488.48  4489.13  4497.09  4507.34  4513.70
                             4516.77  4567.56

 Zero-point correction=                           0.281163 (Hartree/Particle)
 Thermal correction to Energy=                    0.292699
 Thermal correction to Enthalpy=                  0.293643
 Thermal correction to Gibbs Free Energy=         0.243225
 Sum of electronic and zero-point Energies=           -617.227668
 Sum of electronic and thermal Energies=              -617.216132
 Sum of electronic and thermal Enthalpies=            -617.215188
 Sum of electronic and thermal Free Energies=         -617.265606

                     E (Thermal)             CV                S
                      KCal/Mol        Cal/Mol-Kelvin    Cal/Mol-Kelvin
 Total                  183.671             46.371            106.113
 Electronic               0.000              0.000              0.000
 Translational            0.889              2.981             41.570
 Rotational               0.889              2.981             31.077
 Vibrational            181.894             40.409             33.467
 Vibration     1          0.594              1.983              5.566
 Vibration     2          0.598              1.968              4.119
 Vibration     3          0.607              1.939              3.226
 Vibration     4          0.616              1.911              2.775
 Vibration     5          0.632              1.859              2.264
 Vibration     6          0.658              1.777              1.793
 Vibration     7          0.677              1.720              1.566
 Vibration     8          0.684              1.699              1.494
 Vibration     9          0.709              1.626              1.287
 Vibration    10          0.753              1.504              1.022
 Vibration    11          0.764              1.476              0.972
 Vibration    12          0.794              1.397              0.847
 Vibration    13          0.810              1.358              0.791
 Vibration    14          0.839              1.287              0.701
 Vibration    15          0.884              1.186              0.590
 Vibration    16          0.887              1.178              0.582
 Vibration    17          0.959              1.029              0.448

 Optimization completed.
    -- Stationary point found.
 Normal termination of Gaussian 16 at Sat Mar  9 00:48:59 2019.
