 Gaussian 16, Revision B.01,
 Gaussian 16:  ES64L-G16RevB.01 20-Dec-2017

 ----------------------------------------------------------------------
 #M062X/6-311++G(2d,2p) opt=ModRedundant freq=noraman SCRF=(SMD,solvent
 =water)
 ----------------------------------------------------------------------

 -------------------------------
 4c1_a1_a4_4c1_PSI.inp_extract_9
 -------------------------------
 Symbolic Z-matrix:
 Charge =  0 Multiplicity = 1

 SCF Done:  E(RM062X) =  -617.498417479     A.U. after   13 cycles
 SCF Done:  E(RM062X) =  -617.499699621     A.U. after   12 cycles
 SCF Done:  E(RM062X) =  -617.500275672     A.U. after   11 cycles
 SCF Done:  E(RM062X) =  -617.500581406     A.U. after   11 cycles
 SCF Done:  E(RM062X) =  -617.500728756     A.U. after    9 cycles
 SCF Done:  E(RM062X) =  -617.500732779     A.U. after    8 cycles
 SCF Done:  E(RM062X) =  -617.500734244     A.U. after    7 cycles
 Optimization completed.
    -- Stationary point found.
 Normal termination of Gaussian 16 at Sat Mar  9 00:29:47 2019.

 ----------------------------------------------------------------------
 #N Geom=AllCheck Guess=TCheck SCRF=Check GenChk RM062X/6-311++G(2d,2p)
  Freq
 ----------------------------------------------------------------------

 Structure from the checkpoint file:  "4c1_a1_a4_4c1_PSI.inp_extract_9.chk"
 -------------------------------
 4c1_a1_a4_4c1_PSI.inp_extract_9
 -------------------------------
 Charge =  0 Multiplicity = 1

                         Standard orientation:
 ---------------------------------------------------------------------
 Center     Atomic      Atomic             Coordinates (Angstroms)
 Number     Number       Type             X           Y           Z
 ---------------------------------------------------------------------
      1          6           0       -1.964378   -1.200305   -0.680266
      2          6           0        0.872375   -0.674316   -0.569127
      3          6           0       -1.251913   -1.129905    0.659617
      4          6           0        3.113086    1.012225    0.123283
      5          6           0       -2.766922    1.005503   -0.529227
      6          8           0       -2.053602    0.058797   -1.326074
      7          6           0        3.085974   -0.434126    0.610711
      8          6           0        1.692984    1.511098   -0.069193
      9          6           0        2.255041   -1.273220   -0.356708
     10          6           0       -2.091091    1.220535    0.814322
     11          8           0        0.960575    0.681333   -0.978435
     12          8           0        0.145249   -0.780420    0.630565
     13          6           0       -1.951876   -0.110458    1.551019
     14          1           0       -2.970018   -1.584868   -0.474737
     15          1           0       -1.486383   -1.887241   -1.373972
     16          1           0        0.365210   -1.177593   -1.386293
     17          1           0       -1.318570   -2.124407    1.105968
     18          1           0        3.646602    1.072396   -0.828504
     19          1           0        3.624626    1.661476    0.834512
     20          1           0       -2.802479    1.924693   -1.110112
     21          1           0       -3.791248    0.642814   -0.384367
     22          1           0        2.646026   -0.473890    1.609742
     23          1           0        4.094797   -0.838789    0.685108
     24          1           0        1.671347    2.508545   -0.503078
     25          1           0        1.172827    1.544148    0.892004
     26          1           0        2.749989   -1.305748   -1.329391
     27          1           0        2.137663   -2.298254   -0.006580
     28          1           0       -2.677620    1.928020    1.400660
     29          1           0       -1.106480    1.662605    0.650304
     30          1           0       -1.392695    0.004564    2.479354
     31          1           0       -2.941055   -0.498339    1.804341
 ---------------------------------------------------------------------

 SCF Done:  E(RM062X) =  -617.500734244     A.U. after    1 cycles

 The electronic state is 1-A.
 Alpha  occ. eigenvalues --  -19.62965 -19.62771 -19.62699 -10.63033 -10.58565
 Alpha  occ. eigenvalues --  -10.57790 -10.57348 -10.57120 -10.52457 -10.52323
 Alpha  occ. eigenvalues --  -10.52276 -10.52239 -10.52119  -1.19235  -1.16174
 Alpha  occ. eigenvalues --   -1.12716  -0.90484  -0.89166  -0.86374  -0.84418
 Alpha  occ. eigenvalues --   -0.74625  -0.73350  -0.72488  -0.70545  -0.65790
 Alpha  occ. eigenvalues --   -0.61983  -0.59196  -0.57961  -0.57386  -0.54822
 Alpha  occ. eigenvalues --   -0.53875  -0.52452  -0.51584  -0.49991  -0.49309
 Alpha  occ. eigenvalues --   -0.48073  -0.46196  -0.45633  -0.45111  -0.44982
 Alpha  occ. eigenvalues --   -0.42820  -0.41692  -0.41481  -0.39843  -0.38870
 Alpha  occ. eigenvalues --   -0.37583  -0.37123  -0.36128  -0.33656  -0.33053
 Alpha  occ. eigenvalues --   -0.31986
 Alpha virt. eigenvalues --    0.00284   0.01275   0.01404   0.01509   0.02740
 Alpha virt. eigenvalues --    0.03013   0.03259   0.03580   0.03817   0.05215
 Alpha virt. eigenvalues --    0.05306   0.05568   0.05990   0.06292   0.07764

 Mulliken charges:
               1
     1  C   -0.446512
     2  C   -0.074635
     3  C    0.355511
     4  C   -0.428949
     5  C   -0.203623
     6  O   -0.352370
     7  C   -0.310091
     8  C   -0.102020
     9  C   -0.455781
    10  C   -0.289785
    11  O   -0.304638
    12  O   -0.384322
    13  C   -0.568898
    14  H    0.204218
    15  H    0.195620
    16  H    0.328388
    17  H    0.256099
    18  H    0.166067
    19  H    0.181379
    20  H    0.212058
    21  H    0.177580
    22  H    0.177139
    23  H    0.194285
    24  H    0.219222
    25  H    0.149219
    26  H    0.192671
    27  H    0.186250
    28  H    0.206192
    29  H    0.127584
    30  H    0.182854
    31  H    0.209287
 Sum of Mulliken charges =  -0.00000

 Dipole moment (field-independent basis, Debye):
    X=             -0.7609    Y=             -1.3780    Z=              2.4383  Tot=              2.9023
 Quadrupole moment (field-independent basis, Debye-Ang):
   XX=            -68.2390   YY=            -72.7913   ZZ=            -85.5867
   XY=              1.7322   XZ=             -4.2028   YZ=              4.0506

  Exact polarizability: 178.403   1.748 176.895  -1.616   0.491 167.791
 Approx polarizability: 144.016   1.755 144.604  -1.749  -0.075 141.450

 ******    1 imaginary frequencies (negative Signs) ******

                      1                      2                      3
                      A                      A                      A
 Frequencies --    -33.2369                64.1560               102.0838
 Red. masses --      3.8267                 4.4680                 3.4744
 Frc consts  --      0.0025                 0.0108                 0.0213
 IR Inten    --      2.3561                 2.6935                 2.3738

                      4                      5                      6
                      A                      A                      A
 Frequencies --    130.2692               185.9180               224.4283
 Red. masses --      3.8759                 3.4463                 2.8086
 Frc consts  --      0.0388                 0.0702                 0.0833
 IR Inten    --      1.4340                10.0361                 5.5466

                      7                      8                      9
                      A                      A                      A
 Frequencies --    278.2955               293.8230               336.2844
 Red. masses --      2.7465                 2.2882                 2.5018
 Frc consts  --      0.1253                 0.1164                 0.1667
 IR Inten    --      4.6645                 4.5875                 5.2902

                     10                     11                     12
                      A                      A                      A
 Frequencies --    374.1477               412.4041               436.0503
 Red. masses --      1.9914                 2.2939                 3.6767
 Frc consts  --      0.1642                 0.2299                 0.4119
 IR Inten    --      4.8065                 2.9065                13.8137

                     13                     14                     15
                      A                      A                      A
 Frequencies --    454.5050               500.2071               518.6993
 Red. masses --      2.2472                 4.1954                 2.8096
 Frc consts  --      0.2735                 0.6185                 0.4454
 IR Inten    --      3.5822                11.6009                 0.1051

                     16                     17                     18
                      A                      A                      A
 Frequencies --    536.5525               557.3783               666.0746
 Red. masses --      1.8600                 3.0170                 2.6364
 Frc consts  --      0.3155                 0.5522                 0.6892
 IR Inten    --      3.6013                28.0808                 7.7802

                     19                     20                     21
                      A                      A                      A
 Frequencies --    748.8094               817.9189               841.0430
 Red. masses --      2.4490                 2.7229                 1.7324
 Frc consts  --      0.8091                 1.0733                 0.7220
 IR Inten    --     10.4965                 4.7514                 6.8292

                     22                     23                     24
                      A                      A                      A
 Frequencies --    846.6595               865.0392               878.2786
 Red. masses --      3.4605                 2.3045                 1.6443
 Frc consts  --      1.4615                 1.0160                 0.7473
 IR Inten    --     10.6303                17.1663                20.0105

                     25                     26                     27
                      A                      A                      A
 Frequencies --    895.6276               904.4994               917.9087
 Red. masses --      2.5069                 2.5079                 2.2831
 Frc consts  --      1.1848                 1.2089                 1.1334
 IR Inten    --     53.4217                17.1268                47.7319

                     28                     29                     30
                      A                      A                      A
 Frequencies --    925.9782               949.0648               990.1943
 Red. masses --      1.9587                 1.6371                 1.8264
 Frc consts  --      0.9895                 0.8688                 1.0551
 IR Inten    --      2.8899                17.5824                42.7318

                     31                     32                     33
                      A                      A                      A
 Frequencies --   1033.9685              1037.8132              1057.9497
 Red. masses --      2.0983                 2.0469                 1.8786
 Frc consts  --      1.3217                 1.2989                 1.2388
 IR Inten    --     26.4453                 9.2656                 9.2802

                     34                     35                     36
                      A                      A                      A
 Frequencies --   1061.8757              1066.8826              1080.4124
 Red. masses --      1.4880                 2.2571                 2.0931
 Frc consts  --      0.9886                 1.5137                 1.4395
 IR Inten    --     80.1096                45.4313               184.6930

                     37                     38                     39
                      A                      A                      A
 Frequencies --   1098.6089              1143.8133              1159.4599
 Red. masses --      1.6680                 2.6308                 2.3153
 Frc consts  --      1.1861                 2.0279                 1.8339
 IR Inten    --    124.1713               106.4316                68.6605

                     40                     41                     42
                      A                      A                      A
 Frequencies --   1173.0653              1194.7173              1205.0137
 Red. masses --      2.2638                 3.5629                 1.4532
 Frc consts  --      1.8354                 2.9963                 1.2433
 IR Inten    --     64.0093               246.4193                50.8628

                     43                     44                     45
                      A                      A                      A
 Frequencies --   1226.4005              1231.2400              1244.8301
 Red. masses --      1.3862                 1.6729                 1.9909
 Frc consts  --      1.2284                 1.4942                 1.8177
 IR Inten    --     13.3858                90.6994                72.3639

                     46                     47                     48
                      A                      A                      A
 Frequencies --   1281.1932              1299.9628              1319.1322
 Red. masses --      1.2155                 1.1443                 1.1541
 Frc consts  --      1.1756                 1.1393                 1.1832
 IR Inten    --     26.5437                36.0649                10.3952

                     49                     50                     51
                      A                      A                      A
 Frequencies --   1338.7814              1354.5888              1361.2956
 Red. masses --      1.2459                 1.3654                 1.3730
 Frc consts  --      1.3157                 1.4761                 1.4991
 IR Inten    --     25.4865                17.5062                 7.2763

                     52                     53                     54
                      A                      A                      A
 Frequencies --   1367.6775              1382.8544              1387.8987
 Red. masses --      1.4881                 1.5066                 1.5312
 Frc consts  --      1.6401                 1.6975                 1.7378
 IR Inten    --     17.0226                 1.1615                 5.2327

                     55                     56                     57
                      A                      A                      A
 Frequencies --   1395.0617              1396.3494              1398.5509
 Red. masses --      1.3532                 1.6675                 1.3838
 Frc consts  --      1.5517                 1.9156                 1.5947
 IR Inten    --     23.5568                 7.2135                 1.6992

                     58                     59                     60
                      A                      A                      A
 Frequencies --   1406.8843              1417.7946              1429.6066
 Red. masses --      1.3974                 1.3592                 1.3703
 Frc consts  --      1.6296                 1.6098                 1.6500
 IR Inten    --      6.6414                12.2401                 3.0508

                     61                     62                     63
                      A                      A                      A
 Frequencies --   1441.0604              1468.3383              1470.9700
 Red. masses --      1.3393                 1.0893                 1.1068
 Frc consts  --      1.6386                 1.3837                 1.4111
 IR Inten    --     36.4387                 5.7490                 5.4977

                     64                     65                     66
                      A                      A                      A
 Frequencies --   1473.8447              1478.4848              1489.0376
 Red. masses --      1.0858                 1.1204                 1.1127
 Frc consts  --      1.3896                 1.4429                 1.4536
 IR Inten    --      8.8933                16.1120                14.7508

                     67                     68                     69
                      A                      A                      A
 Frequencies --   1501.9489              1503.2746              1517.4472
 Red. masses --      1.0935                 1.0902                 1.0896
 Frc consts  --      1.4534                 1.4515                 1.4783
 IR Inten    --      2.5477                 4.0786                17.5095

                     70                     71                     72
                      A                      A                      A
 Frequencies --   3032.1054              3041.9972              3058.8773
 Red. masses --      1.0699                 1.0717                 1.0689
 Frc consts  --      5.7954                 5.8430                 5.8926
 IR Inten    --     81.8844                35.6422                39.2656

                     73                     74                     75
                      A                      A                      A
 Frequencies --   3065.3485              3068.4377              3069.8883
 Red. masses --      1.0638                 1.0726                 1.0630
 Frc consts  --      5.8894                 5.9503                 5.9025
 IR Inten    --     46.4391                17.2354                44.7706

                     76                     77                     78
                      A                      A                      A
 Frequencies --   3078.0654              3079.0207              3082.6230
 Red. masses --      1.0628                 1.0744                 1.0610
 Frc consts  --      5.9326                 6.0014                 5.9404
 IR Inten    --     38.3609               108.1516                21.7013

                     79                     80                     81
                      A                      A                      A
 Frequencies --   3115.8820              3119.7998              3119.8602
 Red. masses --      1.0974                 1.1021                 1.1014
 Frc consts  --      6.2771                 6.3199                 6.3161
 IR Inten    --     41.7639                83.1049                19.4418

                     82                     83                     84
                      A                      A                      A
 Frequencies --   3127.7076              3129.2616              3136.9085
 Red. masses --      1.1034                 1.1033                 1.0990
 Frc consts  --      6.3595                 6.3653                 6.3719
 IR Inten    --     52.4264                47.5071                49.3255

                     85                     86                     87
                      A                      A                      A
 Frequencies --   3138.2202              3145.4568              3168.1733
 Red. masses --      1.0964                 1.0936                 1.0863
 Frc consts  --      6.3619                 6.3747                 6.4243
 IR Inten    --     39.1673                15.6957                48.8769

 - Thermochemistry -
 -------------------
 Temperature   298.150 Kelvin.  Pressure   1.00000 Atm.
 Atom     1 has atomic number  6 and mass  12.00000

 Molecular mass:   186.12559 amu.
 Principal axes and moments of inertia in atomic units:
                           1         2         3
     Eigenvalues --  1168.387783323.831433518.37620
           X            0.99999  -0.00077  -0.00538
           Y            0.00118   0.99708   0.07634
           Z            0.00531  -0.07634   0.99707
 This molecule is an asymmetric top.
 Rotational symmetry number  1.
 Warning -- assumption of classical behavior for rotation
           may cause significant error
 Rotational temperatures (Kelvin)      0.07413     0.02606     0.02462
 Rotational constants (GHZ):           1.54464     0.54297     0.51295
    1 imaginary frequencies ignored.
 Zero-point vibrational energy     737665.4 (Joules/Mol)
                                  176.30626 (Kcal/Mol)
 Warning -- explicit consideration of  16 degrees of freedom as
           vibrations may cause significant error
 Vibrational temperatures:     92.31   146.88   187.43   267.49   322.90
          (Kelvin)            400.41   422.75   483.84   538.32   593.36
                              627.38   653.93   719.69   746.29   771.98
                              801.94   958.33  1077.37  1176.80  1210.07
                             1218.15  1244.60  1263.65  1288.61  1301.37
                             1320.67  1332.28  1365.49  1424.67  1487.65
                             1493.18  1522.15  1527.80  1535.01  1554.47
                             1580.65  1645.69  1668.20  1687.78  1718.93
                             1733.75  1764.52  1771.48  1791.03  1843.35
                             1870.36  1897.94  1926.21  1948.95  1958.60
                             1967.78  1989.62  1996.88  2007.18  2009.04
                             2012.20  2024.19  2039.89  2056.88  2073.36
                             2112.61  2116.40  2120.53  2127.21  2142.39
                             2160.97  2162.88  2183.27  4362.52  4376.76
                             4401.04  4410.35  4414.80  4416.88  4428.65
                             4430.02  4435.21  4483.06  4488.70  4488.78
                             4500.07  4502.31  4513.31  4515.20  4525.61
                             4558.29

 Zero-point correction=                           0.280962 (Hartree/Particle)
 Thermal correction to Energy=                    0.291710
 Thermal correction to Enthalpy=                  0.292654
 Thermal correction to Gibbs Free Energy=         0.244612
 Sum of electronic and zero-point Energies=           -617.219772
 Sum of electronic and thermal Energies=              -617.209025
 Sum of electronic and thermal Enthalpies=            -617.208080
 Sum of electronic and thermal Free Energies=         -617.256122

                     E (Thermal)             CV                S
                      KCal/Mol        Cal/Mol-Kelvin    Cal/Mol-Kelvin
 Total                  183.051             44.555            101.113
 Electronic               0.000              0.000              0.000
 Translational            0.889              2.981             41.570
 Rotational               0.889              2.981             30.992
 Vibrational            181.273             38.593             28.551
 Vibration     1          0.597              1.971              4.325
 Vibration     2          0.604              1.947              3.414
 Vibration     3          0.612              1.923              2.942
 Vibration     4          0.632              1.859              2.268
 Vibration     5          0.649              1.804              1.923
 Vibration     6          0.679              1.714              1.544
 Vibration     7          0.689              1.685              1.452
 Vibration     8          0.717              1.603              1.230
 Vibration     9          0.745              1.525              1.063
 Vibration    10          0.776              1.443              0.918
 Vibration    11          0.797              1.392              0.839
 Vibration    12          0.813              1.351              0.782
 Vibration    13          0.856              1.250              0.658
 Vibration    14          0.874              1.209              0.613
 Vibration    15          0.892              1.169              0.573
 Vibration    16          0.913              1.124              0.529

 Optimization completed.
    -- Stationary point found.
 Normal termination of Gaussian 16 at Sat Mar  9 01:38:58 2019.
