 Gaussian 16, Revision B.01,
 Gaussian 16:  ES64L-G16RevB.01 20-Dec-2017

 ----------------------------------------------------------------------
 #M062X/6-311++G(2d,2p) opt=ModRedundant freq=noraman SCRF=(SMD,solvent
 =water)
 ----------------------------------------------------------------------

 --------------------------------
 4c1_a1_a4_4c1_PSI.inp_extract_20
 --------------------------------
 Symbolic Z-matrix:
 Charge =  0 Multiplicity = 1

 SCF Done:  E(RM062X) =  -617.505262031     A.U. after   12 cycles
 SCF Done:  E(RM062X) =  -617.507026802     A.U. after   11 cycles
 SCF Done:  E(RM062X) =  -617.507329873     A.U. after   10 cycles
 SCF Done:  E(RM062X) =  -617.507468526     A.U. after    9 cycles
 SCF Done:  E(RM062X) =  -617.507481263     A.U. after    9 cycles
 SCF Done:  E(RM062X) =  -617.507483253     A.U. after    8 cycles
 Optimization completed.
    -- Stationary point found.
 Normal termination of Gaussian 16 at Sat Mar  9 03:46:26 2019.

 ----------------------------------------------------------------------
 #N Geom=AllCheck Guess=TCheck SCRF=Check GenChk RM062X/6-311++G(2d,2p)
  Freq
 ----------------------------------------------------------------------

 Structure from the checkpoint file:  "4c1_a1_a4_4c1_PSI.inp_extract_20.chk"
 --------------------------------
 4c1_a1_a4_4c1_PSI.inp_extract_20
 --------------------------------
 Charge =  0 Multiplicity = 1

                         Standard orientation:
 ---------------------------------------------------------------------
 Center     Atomic      Atomic             Coordinates (Angstroms)
 Number     Number       Type             X           Y           Z
 ---------------------------------------------------------------------
      1          6           0       -2.002455   -0.538675    1.411245
      2          6           0        0.875295    0.108336   -0.739879
      3          6           0       -0.961448    0.396893    0.826494
      4          6           0        3.533025   -0.008786    0.364539
      5          6           0       -3.429774   -0.329880   -0.447679
      6          8           0       -2.723157   -1.232141    0.402733
      7          6           0        2.863962   -1.297928   -0.106489
      8          6           0        2.477180    0.996605    0.784514
      9          6           0        1.841194   -0.972630   -1.193232
     10          6           0       -2.472996    0.599349   -1.174716
     11          8           0        1.556250    1.262965   -0.280828
     12          8           0        0.069999   -0.436318    0.276144
     13          6           0       -1.616139    1.358271   -0.161195
     14          1           0       -2.694782    0.043653    2.028192
     15          1           0       -1.524093   -1.293857    2.032248
     16          1           0        0.268688    0.457212   -1.573454
     17          1           0       -0.523897    0.972613    1.647723
     18          1           0        4.127322    0.418191   -0.447015
     19          1           0        4.202046   -0.195046    1.205152
     20          1           0       -3.995048   -0.945672   -1.143922
     21          1           0       -4.134638    0.250526    0.158820
     22          1           0        2.367120   -1.779436    0.738261
     23          1           0        3.603450   -2.000118   -0.489843
     24          1           0        2.916621    1.959151    1.036627
     25          1           0        1.925781    0.630796    1.655078
     26          1           0        2.352850   -0.596567   -2.080908
     27          1           0        1.268428   -1.851985   -1.486118
     28          1           0       -3.044526    1.293750   -1.790857
     29          1           0       -1.846796    0.004361   -1.842713
     30          1           0       -0.879780    1.995932   -0.645291
     31          1           0       -2.260536    2.011121    0.432016
 ---------------------------------------------------------------------

 SCF Done:  E(RM062X) =  -617.507483253     A.U. after    1 cycles

 The electronic state is 1-A.
 Alpha  occ. eigenvalues --  -19.63102 -19.62952 -19.62947 -10.63001 -10.58399
 Alpha  occ. eigenvalues --  -10.57583 -10.57349 -10.57239 -10.52693 -10.52428
 Alpha  occ. eigenvalues --  -10.52405 -10.52314 -10.52171  -1.19741  -1.16226
 Alpha  occ. eigenvalues --   -1.12829  -0.90460  -0.89008  -0.87164  -0.84097
 Alpha  occ. eigenvalues --   -0.74611  -0.73527  -0.72143  -0.70631  -0.65872
 Alpha  occ. eigenvalues --   -0.61787  -0.59559  -0.58427  -0.56617  -0.55188
 Alpha  occ. eigenvalues --   -0.53376  -0.52895  -0.52088  -0.50712  -0.49150
 Alpha  occ. eigenvalues --   -0.46856  -0.46625  -0.45730  -0.45517  -0.44928
 Alpha  occ. eigenvalues --   -0.43440  -0.42556  -0.40195  -0.39774  -0.38737
 Alpha  occ. eigenvalues --   -0.38140  -0.37327  -0.35703  -0.34186  -0.33350
 Alpha  occ. eigenvalues --   -0.32317
 Alpha virt. eigenvalues --    0.00325   0.01316   0.01327   0.01560   0.02757
 Alpha virt. eigenvalues --    0.02922   0.03145   0.03825   0.03947   0.05042
 Alpha virt. eigenvalues --    0.05167   0.05388   0.05863   0.06430   0.07570

 Mulliken charges:
               1
     1  C   -0.464747
     2  C    0.002629
     3  C    0.114112
     4  C   -0.395088
     5  C   -0.238791
     6  O   -0.368404
     7  C   -0.311774
     8  C   -0.094848
     9  C   -0.520492
    10  C   -0.298480
    11  O   -0.327999
    12  O   -0.360937
    13  C   -0.287074
    14  H    0.203568
    15  H    0.206493
    16  H    0.291180
    17  H    0.236260
    18  H    0.167050
    19  H    0.179705
    20  H    0.210365
    21  H    0.159633
    22  H    0.176038
    23  H    0.188806
    24  H    0.212345
    25  H    0.136641
    26  H    0.197779
    27  H    0.192672
    28  H    0.183981
    29  H    0.149432
    30  H    0.206937
    31  H    0.253009
 Sum of Mulliken charges =  -0.00000

 Dipole moment (field-independent basis, Debye):
    X=              0.2300    Y=              2.0857    Z=              0.2481  Tot=              2.1129
 Quadrupole moment (field-independent basis, Debye-Ang):
   XX=            -71.3877   YY=            -86.2655   ZZ=            -73.9457
   XY=             -9.4092   XZ=              2.4832   YZ=              3.1754

  Exact polarizability: 180.421  -0.589 168.914   2.430   2.028 173.660
 Approx polarizability: 144.302  -0.266 141.757   1.366   0.648 143.941

                      1                      2                      3
                      A                      A                      A
 Frequencies --     57.7543                61.2432               106.0254
 Red. masses --      3.7249                 3.7439                 3.8623
 Frc consts  --      0.0073                 0.0083                 0.0256
 IR Inten    --      1.1085                 3.5575                 6.7134

                      4                      5                      6
                      A                      A                      A
 Frequencies --    134.2894               185.4238               226.5786
 Red. masses --      3.8265                 3.0366                 3.1641
 Frc consts  --      0.0407                 0.0615                 0.0957
 IR Inten    --      1.1225                 0.6849                17.9519

                      7                      8                      9
                      A                      A                      A
 Frequencies --    264.8023               279.1004               351.9213
 Red. masses --      3.2010                 2.0690                 2.2923
 Frc consts  --      0.1322                 0.0950                 0.1673
 IR Inten    --      0.3897                 4.5521                 5.7920

                     10                     11                     12
                      A                      A                      A
 Frequencies --    391.5746               401.8323               436.0669
 Red. masses --      1.9884                 2.3370                 3.1166
 Frc consts  --      0.1796                 0.2223                 0.3492
 IR Inten    --      3.5890                11.8390                19.4978

                     13                     14                     15
                      A                      A                      A
 Frequencies --    444.4992               494.1056               521.9032
 Red. masses --      2.5805                 3.3129                 2.3361
 Frc consts  --      0.3004                 0.4765                 0.3749
 IR Inten    --      0.4890                 5.7783                 8.2167

                     16                     17                     18
                      A                      A                      A
 Frequencies --    546.0084               603.2521               684.2441
 Red. masses --      2.1882                 3.0521                 2.8133
 Frc consts  --      0.3844                 0.6544                 0.7760
 IR Inten    --      4.4454                 3.9432                 7.8737

                     19                     20                     21
                      A                      A                      A
 Frequencies --    746.6320               824.7440               835.7088
 Red. masses --      2.5929                 2.5940                 1.8840
 Frc consts  --      0.8516                 1.0396                 0.7753
 IR Inten    --      7.7576                12.1267                 2.1380

                     22                     23                     24
                      A                      A                      A
 Frequencies --    844.2301               869.2956               879.0976
 Red. masses --      3.1191                 2.2920                 1.6011
 Frc consts  --      1.3098                 1.0205                 0.7290
 IR Inten    --      9.4054                 8.6723                10.0368

                     25                     26                     27
                      A                      A                      A
 Frequencies --    901.0085               906.7906               919.4146
 Red. masses --      2.4074                 2.5393                 2.2397
 Frc consts  --      1.1515                 1.2302                 1.1155
 IR Inten    --     15.2513                30.1326                51.4864

                     28                     29                     30
                      A                      A                      A
 Frequencies --    930.0281               953.0191              1002.0763
 Red. masses --      1.9033                 1.6593                 2.0134
 Frc consts  --      0.9699                 0.8879                 1.1912
 IR Inten    --      8.1201                28.7276                54.5781

                     31                     32                     33
                      A                      A                      A
 Frequencies --   1031.3437              1039.6246              1056.4802
 Red. masses --      2.0831                 2.3624                 1.7767
 Frc consts  --      1.3055                 1.5044                 1.1684
 IR Inten    --     39.6573                30.5199                16.1629

                     34                     35                     36
                      A                      A                      A
 Frequencies --   1064.4352              1065.5732              1083.7051
 Red. masses --      1.7047                 1.7007                 2.2204
 Frc consts  --      1.1380                 1.1377                 1.5364
 IR Inten    --     46.5674                56.3381               190.1362

                     37                     38                     39
                      A                      A                      A
 Frequencies --   1096.1622              1150.0616              1164.8700
 Red. masses --      1.6090                 2.8898                 2.3911
 Frc consts  --      1.1391                 2.2520                 1.9116
 IR Inten    --     22.1532               188.7379                15.8427

                     40                     41                     42
                      A                      A                      A
 Frequencies --   1172.0020              1201.6556              1211.1996
 Red. masses --      2.2927                 2.7799                 1.4557
 Frc consts  --      1.8554                 2.3650                 1.2582
 IR Inten    --     46.5041               152.6057                41.2649

                     43                     44                     45
                      A                      A                      A
 Frequencies --   1234.2026              1235.1721              1242.1649
 Red. masses --      1.5859                 1.7201                 1.7786
 Frc consts  --      1.4233                 1.5461                 1.6169
 IR Inten    --    149.2834                74.8523                65.4629

                     46                     47                     48
                      A                      A                      A
 Frequencies --   1285.0981              1300.1974              1315.9578
 Red. masses --      1.2445                 1.1334                 1.1474
 Frc consts  --      1.2109                 1.1289                 1.1707
 IR Inten    --     47.7321                25.7571                14.5834

                     49                     50                     51
                      A                      A                      A
 Frequencies --   1337.9067              1358.3204              1365.2275
 Red. masses --      1.2231                 1.3430                 1.3147
 Frc consts  --      1.2899                 1.4599                 1.4438
 IR Inten    --     20.4614                 7.5996                 1.8342

                     52                     53                     54
                      A                      A                      A
 Frequencies --   1370.4504              1377.1728              1386.3216
 Red. masses --      1.5263                 1.4935                 1.5439
 Frc consts  --      1.6890                 1.6690                 1.7482
 IR Inten    --     13.6883                17.3962                 4.3818

                     55                     56                     57
                      A                      A                      A
 Frequencies --   1393.8961              1402.5057              1405.2018
 Red. masses --      1.6420                 1.3317                 1.4949
 Frc consts  --      1.8796                 1.5434                 1.7392
 IR Inten    --     10.3336                 2.0161                 9.7594

                     58                     59                     60
                      A                      A                      A
 Frequencies --   1406.3176              1424.1453              1432.9665
 Red. masses --      1.3993                 1.3814                 1.4284
 Frc consts  --      1.6306                 1.6508                 1.7281
 IR Inten    --      7.8418                14.7166                 7.9344

                     61                     62                     63
                      A                      A                      A
 Frequencies --   1438.0245              1469.3788              1472.7008
 Red. masses --      1.3285                 1.1084                 1.0878
 Frc consts  --      1.6187                 1.4100                 1.3901
 IR Inten    --     25.7981                 5.4258                 7.7928

                     64                     65                     66
                      A                      A                      A
 Frequencies --   1473.4594              1486.8989              1491.3529
 Red. masses --      1.0958                 1.0934                 1.1095
 Frc consts  --      1.4017                 1.4243                 1.4539
 IR Inten    --      8.9494                 9.4550                 7.3397

                     67                     68                     69
                      A                      A                      A
 Frequencies --   1493.8113              1503.4370              1504.3645
 Red. masses --      1.0987                 1.0937                 1.0992
 Frc consts  --      1.4445                 1.4565                 1.4657
 IR Inten    --     26.2919                 3.8936                 8.0252

                     70                     71                     72
                      A                      A                      A
 Frequencies --   3031.5931              3046.0019              3054.0040
 Red. masses --      1.0700                 1.0729                 1.0775
 Frc consts  --      5.7939                 5.8651                 5.9213
 IR Inten    --     72.7003                 7.0996               140.3540

                     73                     74                     75
                      A                      A                      A
 Frequencies --   3059.3884              3065.7151              3073.4271
 Red. masses --      1.0695                 1.0631                 1.0641
 Frc consts  --      5.8978                 5.8872                 5.9220
 IR Inten    --     18.6584                48.3202                13.0289

                     76                     77                     78
                      A                      A                      A
 Frequencies --   3073.5151              3080.6198              3081.9975
 Red. masses --      1.0641                 1.0671                 1.0625
 Frc consts  --      5.9225                 5.9668                 5.9464
 IR Inten    --     37.8920                61.1824                24.9643

                     79                     80                     81
                      A                      A                      A
 Frequencies --   3115.5024              3120.8329              3122.5653
 Red. masses --      1.0979                 1.1022                 1.1012
 Frc consts  --      6.2788                 6.3246                 6.3260
 IR Inten    --     50.4189                62.6645                54.2010

                     82                     83                     84
                      A                      A                      A
 Frequencies --   3127.9544              3131.6898              3137.7049
 Red. masses --      1.0875                 1.1038                 1.0965
 Frc consts  --      6.2691                 6.3781                 6.3605
 IR Inten    --     38.5997                43.3191                44.0079

                     85                     86                     87
                      A                      A                      A
 Frequencies --   3139.1201              3140.9322              3143.0317
 Red. masses --      1.0970                 1.0987                 1.0958
 Frc consts  --      6.3692                 6.3863                 6.3781
 IR Inten    --     34.8774                36.9291                38.2480

 - Thermochemistry -
 -------------------
 Temperature   298.150 Kelvin.  Pressure   1.00000 Atm.
 Atom     1 has atomic number  6 and mass  12.00000

 Molecular mass:   186.12559 amu.
 Principal axes and moments of inertia in atomic units:
                           1         2         3
     Eigenvalues --  1009.579253905.657484029.78707
           X            0.99985  -0.01679   0.00468
           Y            0.01633   0.99631   0.08428
           Z           -0.00607  -0.08419   0.99643
 This molecule is an asymmetric top.
 Rotational symmetry number  1.
 Warning -- assumption of classical behavior for rotation
           may cause significant error
 Rotational temperatures (Kelvin)      0.08579     0.02218     0.02149
 Rotational constants (GHZ):           1.78762     0.46208     0.44785
 Zero-point vibrational energy     738646.4 (Joules/Mol)
                                  176.54072 (Kcal/Mol)
 Warning -- explicit consideration of  17 degrees of freedom as
           vibrations may cause significant error
 Vibrational temperatures:     83.10    88.12   152.55   193.21   266.78
          (Kelvin)            326.00   380.99   401.56   506.34   563.39
                              578.15   627.40   639.54   710.91   750.90
                              785.58   867.95   984.47  1074.24  1186.62
                             1202.40  1214.66  1250.72  1264.83  1296.35
                             1304.67  1322.83  1338.10  1371.18  1441.76
                             1483.87  1495.79  1520.04  1531.48  1533.12
                             1559.21  1577.13  1654.68  1675.99  1686.25
                             1728.91  1742.65  1775.74  1777.14  1787.20
                             1848.97  1870.69  1893.37  1924.95  1954.32
                             1964.26  1971.77  1981.44  1994.61  2005.51
                             2017.89  2021.77  2023.38  2049.03  2061.72
                             2069.00  2114.11  2118.89  2119.98  2139.32
                             2145.72  2149.26  2163.11  2164.45  4361.79
                             4382.52  4394.03  4401.78  4410.88  4421.98
                             4422.10  4432.32  4434.31  4482.51  4490.18
                             4492.67  4500.43  4505.80  4514.46  4516.49
                             4519.10  4522.12

 Zero-point correction=                           0.281336 (Hartree/Particle)
 Thermal correction to Energy=                    0.292865
 Thermal correction to Enthalpy=                  0.293809
 Thermal correction to Gibbs Free Energy=         0.243587
 Sum of electronic and zero-point Energies=           -617.226148
 Sum of electronic and thermal Energies=              -617.214619
 Sum of electronic and thermal Enthalpies=            -617.213674
 Sum of electronic and thermal Free Energies=         -617.263896

                     E (Thermal)             CV                S
                      KCal/Mol        Cal/Mol-Kelvin    Cal/Mol-Kelvin
 Total                  183.775             46.333            105.701
 Electronic               0.000              0.000              0.000
 Translational            0.889              2.981             41.570
 Rotational               0.889              2.981             31.142
 Vibrational            181.998             40.371             32.989
 Vibration     1          0.596              1.974              4.532
 Vibration     2          0.597              1.973              4.417
 Vibration     3          0.605              1.944              3.340
 Vibration     4          0.613              1.919              2.884
 Vibration     5          0.631              1.860              2.273
 Vibration     6          0.650              1.801              1.906
 Vibration     7          0.671              1.738              1.630
 Vibration     8          0.679              1.712              1.539
 Vibration     9          0.728              1.571              1.158
 Vibration    10          0.759              1.488              0.994
 Vibration    11          0.767              1.466              0.956
 Vibration    12          0.797              1.392              0.839
 Vibration    13          0.804              1.373              0.813
 Vibration    14          0.850              1.263              0.673
 Vibration    15          0.877              1.201              0.606
 Vibration    16          0.901              1.148              0.553
 Vibration    17          0.962              1.025              0.444

 Optimization completed.
    -- Stationary point found.
 Normal termination of Gaussian 16 at Sat Mar  9 04:53:21 2019.
