 Gaussian 16, Revision B.01,
 Gaussian 16:  ES64L-G16RevB.01 20-Dec-2017

 ----------------------------------------------------------------------
 #M062X/6-311++G(2d,2p) opt=ModRedundant freq=noraman SCRF=(SMD,solvent
 =water)
 ----------------------------------------------------------------------

 --------------------------------
 4c1_a1_a4_4c1_PSI.inp_extract_10
 --------------------------------
 Symbolic Z-matrix:
 Charge =  0 Multiplicity = 1

 SCF Done:  E(RM062X) =  -617.498984780     A.U. after   13 cycles
 SCF Done:  E(RM062X) =  -617.499736473     A.U. after   12 cycles
 SCF Done:  E(RM062X) =  -617.500805493     A.U. after   11 cycles
 SCF Done:  E(RM062X) =  -617.501186964     A.U. after   11 cycles
 SCF Done:  E(RM062X) =  -617.501531918     A.U. after   10 cycles
 SCF Done:  E(RM062X) =  -617.501555908     A.U. after    9 cycles
 SCF Done:  E(RM062X) =  -617.501557852     A.U. after    8 cycles
 SCF Done:  E(RM062X) =  -617.501557915     A.U. after    7 cycles
 Optimization completed.
    -- Stationary point found.
 Normal termination of Gaussian 16 at Sat Mar  9 01:15:12 2019.

 ----------------------------------------------------------------------
 #N Geom=AllCheck Guess=TCheck SCRF=Check GenChk RM062X/6-311++G(2d,2p)
  Freq
 ----------------------------------------------------------------------

 Structure from the checkpoint file:  "4c1_a1_a4_4c1_PSI.inp_extract_10.chk"
 --------------------------------
 4c1_a1_a4_4c1_PSI.inp_extract_10
 --------------------------------
 Charge =  0 Multiplicity = 1

                         Standard orientation:
 ---------------------------------------------------------------------
 Center     Atomic      Atomic             Coordinates (Angstroms)
 Number     Number       Type             X           Y           Z
 ---------------------------------------------------------------------
      1          6           0       -1.980277   -1.306416   -0.462348
      2          6           0        0.837516   -0.711009   -0.524730
      3          6           0       -1.232952   -1.034446    0.831029
      4          6           0        3.064048    1.040262    0.043035
      5          6           0       -2.743028    0.910291   -0.663973
      6          8           0       -2.065246   -0.169617   -1.307238
      7          6           0        3.105061   -0.405744    0.531142
      8          6           0        1.621981    1.497033   -0.078763
      9          6           0        2.245455   -1.271983   -0.386648
     10          6           0       -2.017717    1.348603    0.597156
     11          8           0        0.871878    0.641954   -0.948296
     12          8           0        0.191524   -0.844047    0.718044
     13          6           0       -1.851744    0.162933    1.545614
     14          1           0       -2.987998   -1.631027   -0.179430
     15          1           0       -1.522824   -2.106808   -1.039416
     16          1           0        0.296462   -1.232463   -1.309081
     17          1           0       -1.352420   -1.923221    1.452981
     18          1           0        3.546689    1.115089   -0.934504
     19          1           0        3.591871    1.705047    0.727501
     20          1           0       -2.794072    1.714537   -1.394915
     21          1           0       -3.763886    0.591549   -0.422736
     22          1           0        2.723999   -0.456185    1.553507
     23          1           0        4.127775   -0.780984    0.548288
     24          1           0        1.548958    2.491984   -0.513090
     25          1           0        1.148384    1.518155    0.906991
     26          1           0        2.685307   -1.293400   -1.385652
     27          1           0        2.178304   -2.298543   -0.028407
     28          1           0       -2.587345    2.144903    1.076909
     29          1           0       -1.044183    1.756971    0.325092
     30          1           0       -1.238226    0.424064    2.407902
     31          1           0       -2.832092   -0.143130    1.918897
 ---------------------------------------------------------------------

 SCF Done:  E(RM062X) =  -617.501557915     A.U. after    1 cycles

 The electronic state is 1-A.
 Alpha  occ. eigenvalues --  -19.62935 -19.62838 -19.62670 -10.63022 -10.58529
 Alpha  occ. eigenvalues --  -10.57806 -10.57330 -10.57135 -10.52444 -10.52326
 Alpha  occ. eigenvalues --  -10.52278 -10.52154 -10.52128  -1.19228  -1.16129
 Alpha  occ. eigenvalues --   -1.12742  -0.90452  -0.89104  -0.86413  -0.84403
 Alpha  occ. eigenvalues --   -0.74634  -0.73473  -0.72464  -0.70520  -0.65709
 Alpha  occ. eigenvalues --   -0.62040  -0.59047  -0.58118  -0.57181  -0.54777
 Alpha  occ. eigenvalues --   -0.54013  -0.52242  -0.51416  -0.50109  -0.49490
 Alpha  occ. eigenvalues --   -0.48195  -0.45991  -0.45596  -0.45120  -0.44973
 Alpha  occ. eigenvalues --   -0.42615  -0.41945  -0.41484  -0.39730  -0.38901
 Alpha  occ. eigenvalues --   -0.37609  -0.36995  -0.36289  -0.33544  -0.33174
 Alpha  occ. eigenvalues --   -0.31885
 Alpha virt. eigenvalues --    0.00279   0.01260   0.01431   0.01499   0.02764
 Alpha virt. eigenvalues --    0.03035   0.03264   0.03590   0.03778   0.05224
 Alpha virt. eigenvalues --    0.05334   0.05632   0.06070   0.06244   0.07810

 Mulliken charges:
               1
     1  C   -0.455732
     2  C   -0.073001
     3  C    0.391215
     4  C   -0.443435
     5  C   -0.194867
     6  O   -0.347919
     7  C   -0.308643
     8  C   -0.081634
     9  C   -0.489611
    10  C   -0.318318
    11  O   -0.282774
    12  O   -0.399091
    13  C   -0.593359
    14  H    0.200323
    15  H    0.201613
    16  H    0.320114
    17  H    0.254585
    18  H    0.165286
    19  H    0.181853
    20  H    0.212907
    21  H    0.176070
    22  H    0.175830
    23  H    0.196254
    24  H    0.225970
    25  H    0.149580
    26  H    0.193950
    27  H    0.188443
    28  H    0.204738
    29  H    0.152153
    30  H    0.186561
    31  H    0.210938
 Sum of Mulliken charges =   0.00000

 Dipole moment (field-independent basis, Debye):
    X=             -0.7355    Y=             -0.6961    Z=              2.4729  Tot=              2.6722
 Quadrupole moment (field-independent basis, Debye-Ang):
   XX=            -68.7230   YY=            -73.0172   ZZ=            -85.6062
   XY=              1.2694   XZ=             -4.8568   YZ=              2.7016

  Exact polarizability: 178.088   1.165 176.662  -1.657  -0.179 168.094
 Approx polarizability: 143.875   1.187 144.429  -1.736  -0.631 141.837

                      1                      2                      3
                      A                      A                      A
 Frequencies --     37.9545                73.7437               103.8380
 Red. masses --      3.5570                 4.4720                 3.5154
 Frc consts  --      0.0030                 0.0143                 0.0223
 IR Inten    --      2.6621                 2.6906                 2.5344

                      4                      5                      6
                      A                      A                      A
 Frequencies --    135.6993               189.5975               227.8335
 Red. masses --      3.6654                 3.6518                 2.7581
 Frc consts  --      0.0398                 0.0773                 0.0844
 IR Inten    --      1.0706                 9.8697                 4.6888

                      7                      8                      9
                      A                      A                      A
 Frequencies --    279.0628               302.0226               334.4812
 Red. masses --      2.7412                 2.2676                 2.6288
 Frc consts  --      0.1258                 0.1219                 0.1733
 IR Inten    --      5.1051                 7.7347                 5.4237

                     10                     11                     12
                      A                      A                      A
 Frequencies --    372.9807               412.0225               437.7815
 Red. masses --      2.0324                 2.2059                 3.5839
 Frc consts  --      0.1666                 0.2206                 0.4047
 IR Inten    --      4.0127                 3.9715                12.5912

                     13                     14                     15
                      A                      A                      A
 Frequencies --    451.9879               498.0483               517.9779
 Red. masses --      2.2674                 4.1080                 2.7646
 Frc consts  --      0.2729                 0.6004                 0.4370
 IR Inten    --      3.8816                16.3324                 0.2019

                     16                     17                     18
                      A                      A                      A
 Frequencies --    533.8163               561.7839               669.2430
 Red. masses --      1.8979                 3.0202                 2.6949
 Frc consts  --      0.3186                 0.5616                 0.7112
 IR Inten    --      4.6349                26.0721                 6.1862

                     19                     20                     21
                      A                      A                      A
 Frequencies --    751.6548               809.3425               840.7026
 Red. masses --      2.3932                 2.9408                 1.6268
 Frc consts  --      0.7967                 1.1350                 0.6774
 IR Inten    --      7.4795                 5.2374                 4.9275

                     22                     23                     24
                      A                      A                      A
 Frequencies --    847.0827               864.9541               873.4102
 Red. masses --      3.4494                 2.1799                 1.8135
 Frc consts  --      1.4583                 0.9609                 0.8151
 IR Inten    --      9.1693                18.6308                18.9821

                     25                     26                     27
                      A                      A                      A
 Frequencies --    896.9111               902.9140               918.7253
 Red. masses --      2.4365                 2.5794                 2.3023
 Frc consts  --      1.1548                 1.2390                 1.1450
 IR Inten    --     47.3689                20.6245                43.9638

                     28                     29                     30
                      A                      A                      A
 Frequencies --    926.1884               952.7280               987.1614
 Red. masses --      1.8726                 1.6834                 1.9085
 Frc consts  --      0.9464                 0.9003                 1.0958
 IR Inten    --      7.7981                16.5456                46.0529

                     31                     32                     33
                      A                      A                      A
 Frequencies --   1034.2567              1038.9290              1058.5994
 Red. masses --      2.1493                 2.0832                 1.8031
 Frc consts  --      1.3546                 1.3248                 1.1905
 IR Inten    --     23.3733                 7.3973                 8.5216

                     34                     35                     36
                      A                      A                      A
 Frequencies --   1062.7503              1066.0442              1081.1094
 Red. masses --      1.4775                 2.2077                 2.1669
 Frc consts  --      0.9832                 1.4782                 1.4922
 IR Inten    --     70.0798                59.0743               184.7564

                     37                     38                     39
                      A                      A                      A
 Frequencies --   1100.3950              1146.7878              1158.5124
 Red. masses --      1.6316                 2.7228                 2.4394
 Frc consts  --      1.1640                 2.1097                 1.9290
 IR Inten    --     99.6601               108.3483               101.1319

                     40                     41                     42
                      A                      A                      A
 Frequencies --   1171.9298              1198.8097              1207.3192
 Red. masses --      2.3912                 2.9102                 1.5702
 Frc consts  --      1.9349                 2.4641                 1.3485
 IR Inten    --     59.5601               195.0386                89.4355

                     43                     44                     45
                      A                      A                      A
 Frequencies --   1226.8197              1232.0956              1241.7165
 Red. masses --      1.3670                 1.6877                 1.8627
 Frc consts  --      1.2122                 1.5095                 1.6922
 IR Inten    --     46.1287                61.1310                61.9186

                     46                     47                     48
                      A                      A                      A
 Frequencies --   1282.1794              1305.6446              1318.1423
 Red. masses --      1.2214                 1.1584                 1.1573
 Frc consts  --      1.1830                 1.1635                 1.1847
 IR Inten    --     29.2558                41.4516                13.3868

                     49                     50                     51
                      A                      A                      A
 Frequencies --   1339.7388              1356.9450              1363.6997
 Red. masses --      1.2613                 1.3580                 1.4458
 Frc consts  --      1.3339                 1.4733                 1.5842
 IR Inten    --     27.9127                 7.5347                 9.5656

                     52                     53                     54
                      A                      A                      A
 Frequencies --   1369.6392              1383.3722              1388.4263
 Red. masses --      1.4214                 1.5037                 1.6197
 Frc consts  --      1.5710                 1.6955                 1.8397
 IR Inten    --     16.9531                 1.0446                11.7634

                     55                     56                     57
                      A                      A                      A
 Frequencies --   1395.4854              1398.4639              1404.4432
 Red. masses --      1.5035                 1.4324                 1.3152
 Frc consts  --      1.7251                 1.6505                 1.5285
 IR Inten    --      3.6217                 4.6085                10.1935

                     58                     59                     60
                      A                      A                      A
 Frequencies --   1409.5040              1420.6190              1427.6100
 Red. masses --      1.3783                 1.3628                 1.3851
 Frc consts  --      1.6134                 1.6204                 1.6633
 IR Inten    --     13.1758                11.3066                 1.5269

                     61                     62                     63
                      A                      A                      A
 Frequencies --   1442.5486              1467.4019              1469.6086
 Red. masses --      1.3120                 1.0880                 1.1044
 Frc consts  --      1.6086                 1.3803                 1.4054
 IR Inten    --     41.1045                 4.1713                 5.7223

                     64                     65                     66
                      A                      A                      A
 Frequencies --   1474.0126              1477.3416              1490.3423
 Red. masses --      1.0893                 1.1196                 1.1118
 Frc consts  --      1.3945                 1.4397                 1.4549
 IR Inten    --      8.8592                17.2425                14.4489

                     67                     68                     69
                      A                      A                      A
 Frequencies --   1502.0935              1502.8934              1512.9946
 Red. masses --      1.0877                 1.0930                 1.0937
 Frc consts  --      1.4460                 1.4545                 1.4751
 IR Inten    --      1.4981                 4.6138                18.6642

                     70                     71                     72
                      A                      A                      A
 Frequencies --   3029.8726              3043.5387              3057.1128
 Red. masses --      1.0700                 1.0708                 1.0689
 Frc consts  --      5.7875                 5.8440                 5.8858
 IR Inten    --     83.4629                39.1572                47.2357

                     73                     74                     75
                      A                      A                      A
 Frequencies --   3065.4048              3067.6307              3071.3299
 Red. masses --      1.0634                 1.0654                 1.0633
 Frc consts  --      5.8876                 5.9069                 5.9096
 IR Inten    --     46.6019                12.9909                38.7579

                     76                     77                     78
                      A                      A                      A
 Frequencies --   3078.4732              3084.1586              3091.4236
 Red. masses --      1.0627                 1.0834                 1.0625
 Frc consts  --      5.9338                 6.0717                 5.9829
 IR Inten    --     34.1431               100.9966                25.4945

                     79                     80                     81
                      A                      A                      A
 Frequencies --   3115.7030              3117.7639              3120.1157
 Red. masses --      1.0976                 1.1010                 1.1025
 Frc consts  --      6.2781                 6.3054                 6.3237
 IR Inten    --     41.8618                35.4054                70.9363

                     82                     83                     84
                      A                      A                      A
 Frequencies --   3130.6901              3134.0122              3136.5054
 Red. masses --      1.1030                 1.0975                 1.0980
 Frc consts  --      6.3693                 6.3511                 6.3640
 IR Inten    --     47.7716                25.4383                67.8638

                     85                     86                     87
                      A                      A                      A
 Frequencies --   3139.9572              3141.3537              3158.0935
 Red. masses --      1.0954                 1.0987                 1.0871
 Frc consts  --      6.3630                 6.3881                 6.3882
 IR Inten    --     12.5635                33.3604                53.1929

 - Thermochemistry -
 -------------------
 Temperature   298.150 Kelvin.  Pressure   1.00000 Atm.
 Atom     1 has atomic number  6 and mass  12.00000

 Molecular mass:   186.12559 amu.
 Principal axes and moments of inertia in atomic units:
                           1         2         3
     Eigenvalues --  1171.715873238.678813464.15263
           X            0.99998  -0.00212  -0.00627
           Y            0.00245   0.99862   0.05256
           Z            0.00615  -0.05257   0.99860
 This molecule is an asymmetric top.
 Rotational symmetry number  1.
 Warning -- assumption of classical behavior for rotation
           may cause significant error
 Rotational temperatures (Kelvin)      0.07392     0.02674     0.02500
 Rotational constants (GHZ):           1.54025     0.55725     0.52098
 Zero-point vibrational energy     738239.6 (Joules/Mol)
                                  176.44349 (Kcal/Mol)
 Warning -- explicit consideration of  17 degrees of freedom as
           vibrations may cause significant error
 Vibrational temperatures:     54.61   106.10   149.40   195.24   272.79
          (Kelvin)            327.80   401.51   434.54   481.24   536.64
                              592.81   629.87   650.31   716.58   745.25
                              768.04   808.28   962.89  1081.46  1164.46
                             1209.58  1218.76  1244.48  1256.64  1290.46
                             1299.09  1321.84  1332.58  1370.76  1420.31
                             1488.06  1494.79  1523.09  1529.06  1533.80
                             1555.48  1583.22  1649.97  1666.84  1686.15
                             1724.82  1737.06  1765.12  1772.71  1786.55
                             1844.77  1878.53  1896.51  1927.59  1952.34
                             1962.06  1970.61  1990.36  1997.64  2007.79
                             2012.08  2020.68  2027.96  2043.95  2054.01
                             2075.51  2111.26  2114.44  2120.78  2125.57
                             2144.27  2161.18  2162.33  2176.86  4359.31
                             4378.97  4398.50  4410.43  4413.64  4418.96
                             4429.24  4437.42  4447.87  4482.80  4485.77
                             4489.15  4504.36  4509.14  4512.73  4517.70
                             4519.71  4543.79

 Zero-point correction=                           0.281181 (Hartree/Particle)
 Thermal correction to Energy=                    0.292738
 Thermal correction to Enthalpy=                  0.293683
 Thermal correction to Gibbs Free Energy=         0.243340
 Sum of electronic and zero-point Energies=           -617.220377
 Sum of electronic and thermal Energies=              -617.208820
 Sum of electronic and thermal Enthalpies=            -617.207875
 Sum of electronic and thermal Free Energies=         -617.258218

                     E (Thermal)             CV                S
                      KCal/Mol        Cal/Mol-Kelvin    Cal/Mol-Kelvin
 Total                  183.696             46.499            105.955
 Electronic               0.000              0.000              0.000
 Translational            0.889              2.981             41.570
 Rotational               0.889              2.981             30.953
 Vibrational            181.919             40.537             33.432
 Vibration     1          0.594              1.982              5.363
 Vibration     2          0.599              1.966              4.051
 Vibration     3          0.605              1.946              3.381
 Vibration     4          0.614              1.918              2.864
 Vibration     5          0.633              1.854              2.232
 Vibration     6          0.651              1.799              1.896
 Vibration     7          0.679              1.712              1.539
 Vibration     8          0.694              1.670              1.406
 Vibration     9          0.716              1.607              1.238
 Vibration    10          0.744              1.528              1.068
 Vibration    11          0.776              1.444              0.919
 Vibration    12          0.798              1.388              0.834
 Vibration    13          0.811              1.356              0.790
 Vibration    14          0.854              1.254              0.663
 Vibration    15          0.873              1.210              0.615
 Vibration    16          0.889              1.175              0.579
 Vibration    17          0.917              1.114              0.520

 Optimization completed.
    -- Stationary point found.
 Normal termination of Gaussian 16 at Sat Mar  9 02:18:14 2019.
