 Gaussian 16, Revision B.01,
 Gaussian 16:  ES64L-G16RevB.01 20-Dec-2017

 ----------------------------------------------------------------------
 #M062X/6-311++G(2d,2p) opt=ModRedundant freq=noraman SCRF=(SMD,solvent
 =water)
 ----------------------------------------------------------------------

 -------------------------------
 4c1_a1_a4_4c1_PSI.inp_extract_7
 -------------------------------
 Symbolic Z-matrix:
 Charge =  0 Multiplicity = 1

 SCF Done:  E(RM062X) =  -617.504021606     A.U. after   13 cycles
 SCF Done:  E(RM062X) =  -617.505512984     A.U. after   11 cycles
 SCF Done:  E(RM062X) =  -617.506306107     A.U. after   11 cycles
 SCF Done:  E(RM062X) =  -617.506579283     A.U. after   10 cycles
 SCF Done:  E(RM062X) =  -617.506596159     A.U. after    9 cycles
 SCF Done:  E(RM062X) =  -617.506604495     A.U. after    8 cycles
 SCF Done:  E(RM062X) =  -617.506604690     A.U. after    7 cycles
 Optimization completed.
    -- Stationary point found.
 Normal termination of Gaussian 16 at Sat Mar  9 00:17:10 2019.

 ----------------------------------------------------------------------
 #N Geom=AllCheck Guess=TCheck SCRF=Check GenChk RM062X/6-311++G(2d,2p)
  Freq
 ----------------------------------------------------------------------

 Structure from the checkpoint file:  "4c1_a1_a4_4c1_PSI.inp_extract_7.chk"
 -------------------------------
 4c1_a1_a4_4c1_PSI.inp_extract_7
 -------------------------------
 Charge =  0 Multiplicity = 1

                         Standard orientation:
 ---------------------------------------------------------------------
 Center     Atomic      Atomic             Coordinates (Angstroms)
 Number     Number       Type             X           Y           Z
 ---------------------------------------------------------------------
      1          6           0       -1.692316   -0.311106   -1.307696
      2          6           0        1.104433   -0.766259   -0.748735
      3          6           0       -1.221377   -1.267924   -0.216517
      4          6           0        2.799018    1.190530    0.523683
      5          6           0       -2.709426    1.179962    0.213251
      6          8           0       -1.799704    1.036667   -0.874343
      7          6           0        2.869942   -0.267721    0.970766
      8          6           0        1.422172    1.487604   -0.041285
      9          6           0        2.459448   -1.172089   -0.189810
     10          6           0       -2.250314    0.366180    1.407556
     11          8           0        1.092955    0.598506   -1.114534
     12          8           0        0.131176   -1.071320    0.222872
     13          6           0       -2.114109   -1.099373    1.007437
     14          1           0       -2.674980   -0.668550   -1.637367
     15          1           0       -1.026529   -0.312368   -2.166715
     16          1           0        0.887605   -1.307864   -1.671142
     17          1           0       -1.303930   -2.281850   -0.618108
     18          1           0        3.549595    1.376763   -0.248403
     19          1           0        2.998170    1.869599    1.353246
     20          1           0       -2.748093    2.243464    0.440187
     21          1           0       -3.706013    0.853926   -0.107549
     22          1           0        2.197449   -0.422733    1.817421
     23          1           0        3.875123   -0.522509    1.304948
     24          1           0        1.368209    2.487923   -0.465637
     25          1           0        0.662495    1.406023    0.740694
     26          1           0        3.186421   -1.081699   -0.999035
     27          1           0        2.417253   -2.219032    0.107766
     28          1           0       -2.971238    0.471979    2.218436
     29          1           0       -1.294054    0.755117    1.761816
     30          1           0       -1.718356   -1.698263    1.828056
     31          1           0       -3.099362   -1.499569    0.757527
 ---------------------------------------------------------------------

 SCF Done:  E(RM062X) =  -617.506604690     A.U. after    1 cycles

 The electronic state is 1-A.
 Alpha  occ. eigenvalues --  -19.63059 -19.62771 -19.62751 -10.63048 -10.58493
 Alpha  occ. eigenvalues --  -10.57535 -10.57258 -10.57137 -10.52581 -10.52362
 Alpha  occ. eigenvalues --  -10.52308 -10.52252 -10.52139  -1.19514  -1.15962
 Alpha  occ. eigenvalues --   -1.13053  -0.90484  -0.89173  -0.86355  -0.84345
 Alpha  occ. eigenvalues --   -0.74292  -0.73407  -0.72275  -0.70841  -0.65423
 Alpha  occ. eigenvalues --   -0.62184  -0.59691  -0.57594  -0.57070  -0.55156
 Alpha  occ. eigenvalues --   -0.53622  -0.52420  -0.52108  -0.49684  -0.49279
 Alpha  occ. eigenvalues --   -0.47956  -0.46701  -0.45393  -0.45013  -0.44840
 Alpha  occ. eigenvalues --   -0.43042  -0.42121  -0.40468  -0.39891  -0.38806
 Alpha  occ. eigenvalues --   -0.37725  -0.37198  -0.35880  -0.34552  -0.32948
 Alpha  occ. eigenvalues --   -0.31859
 Alpha virt. eigenvalues --    0.00298   0.01291   0.01349   0.01575   0.02776
 Alpha virt. eigenvalues --    0.03044   0.03252   0.03588   0.03672   0.05276
 Alpha virt. eigenvalues --    0.05449   0.05532   0.05923   0.06340   0.07639

 Mulliken charges:
               1
     1  C   -0.435102
     2  C   -0.031266
     3  C    0.228917
     4  C   -0.407034
     5  C   -0.269138
     6  O   -0.347898
     7  C   -0.299976
     8  C   -0.109978
     9  C   -0.489095
    10  C   -0.280568
    11  O   -0.293170
    12  O   -0.354757
    13  C   -0.488954
    14  H    0.207791
    15  H    0.244432
    16  H    0.244040
    17  H    0.262888
    18  H    0.167428
    19  H    0.181325
    20  H    0.212267
    21  H    0.173664
    22  H    0.171418
    23  H    0.197085
    24  H    0.224455
    25  H    0.142575
    26  H    0.202527
    27  H    0.192787
    28  H    0.203937
    29  H    0.154854
    30  H    0.180004
    31  H    0.214543
 Sum of Mulliken charges =  -0.00000

 Dipole moment (field-independent basis, Debye):
    X=             -1.0111    Y=             -2.0275    Z=              1.4755  Tot=              2.7037
 Quadrupole moment (field-independent basis, Debye-Ang):
   XX=            -68.1412   YY=            -77.9414   ZZ=            -81.2069
   XY=              2.8705   XZ=             -1.0884   YZ=              7.5826

  Exact polarizability: 177.987   1.102 175.456  -0.870   3.725 170.383
 Approx polarizability: 144.229   1.622 144.039  -1.292   2.037 142.479

                      1                      2                      3
                      A                      A                      A
 Frequencies --     61.2240                93.2579               126.9239
 Red. masses --      3.6545                 3.5262                 3.5518
 Frc consts  --      0.0081                 0.0181                 0.0337
 IR Inten    --      0.4239                 2.5598                 3.8119

                      4                      5                      6
                      A                      A                      A
 Frequencies --    150.3825               189.0668               236.6262
 Red. masses --      3.5117                 3.8709                 3.1231
 Frc consts  --      0.0468                 0.0815                 0.1030
 IR Inten    --      2.0693                 6.8544                 8.5654

                      7                      8                      9
                      A                      A                      A
 Frequencies --    271.1554               292.8685               327.4648
 Red. masses --      3.2583                 2.3842                 2.1400
 Frc consts  --      0.1411                 0.1205                 0.1352
 IR Inten    --      9.7825                 6.5579                 3.6376

                     10                     11                     12
                      A                      A                      A
 Frequencies --    378.1444               409.4528               439.2801
 Red. masses --      2.0552                 2.2348                 3.3494
 Frc consts  --      0.1731                 0.2207                 0.3808
 IR Inten    --      6.5870                 3.2068                 7.1905

                     13                     14                     15
                      A                      A                      A
 Frequencies --    450.3385               492.3350               524.1188
 Red. masses --      2.1592                 3.9876                 2.6579
 Frc consts  --      0.2580                 0.5695                 0.4302
 IR Inten    --      8.0156                 6.7060                 2.2444

                     16                     17                     18
                      A                      A                      A
 Frequencies --    535.5275               592.6869               687.9963
 Red. masses --      1.9749                 2.9492                 2.9498
 Frc consts  --      0.3337                 0.6104                 0.8227
 IR Inten    --      4.1659                17.5097                10.6861

                     19                     20                     21
                      A                      A                      A
 Frequencies --    742.0862               825.9717               838.0249
 Red. masses --      2.4584                 2.6353                 1.9538
 Frc consts  --      0.7977                 1.0593                 0.8084
 IR Inten    --     13.9941                10.4388                 4.3964

                     22                     23                     24
                      A                      A                      A
 Frequencies --    848.8425               866.2334               878.9254
 Red. masses --      2.8709                 2.0474                 1.7486
 Frc consts  --      1.2188                 0.9052                 0.7959
 IR Inten    --      3.4640                16.0237                14.9563

                     25                     26                     27
                      A                      A                      A
 Frequencies --    904.8416               905.8562               914.8354
 Red. masses --      2.3192                 2.5634                 2.3374
 Frc consts  --      1.1187                 1.2393                 1.1526
 IR Inten    --     56.4146                30.2620                16.0169

                     28                     29                     30
                      A                      A                      A
 Frequencies --    934.1553               947.5149              1007.9139
 Red. masses --      1.8516                 1.6571                 1.7525
 Frc consts  --      0.9520                 0.8765                 1.0490
 IR Inten    --     12.8632                17.1708                20.5707

                     31                     32                     33
                      A                      A                      A
 Frequencies --   1034.8840              1037.2315              1060.6453
 Red. masses --      2.3150                 2.2366                 1.7685
 Frc consts  --      1.4608                 1.4177                 1.1722
 IR Inten    --     20.4197                 7.0663                 9.9493

                     34                     35                     36
                      A                      A                      A
 Frequencies --   1064.3493              1069.5289              1084.2603
 Red. masses --      1.6046                 1.8556                 1.7911
 Frc consts  --      1.0710                 1.2506                 1.2406
 IR Inten    --     35.1481                14.7456               167.2243

                     37                     38                     39
                      A                      A                      A
 Frequencies --   1102.6651              1155.3723              1164.6257
 Red. masses --      1.7407                 2.7917                 2.6951
 Frc consts  --      1.2470                 2.1957                 2.1538
 IR Inten    --    135.4683                94.0842               153.2937

                     40                     41                     42
                      A                      A                      A
 Frequencies --   1181.2108              1196.0182              1210.6745
 Red. masses --      2.3656                 3.3919                 1.4301
 Frc consts  --      1.9447                 2.8587                 1.2350
 IR Inten    --     37.9707               216.0708                35.5113

                     43                     44                     45
                      A                      A                      A
 Frequencies --   1230.6094              1241.9565              1247.1350
 Red. masses --      1.3723                 1.9912                 1.8678
 Frc consts  --      1.2245                 1.8095                 1.7116
 IR Inten    --     40.8835               189.4290                 9.3277

                     46                     47                     48
                      A                      A                      A
 Frequencies --   1284.1724              1305.1363              1318.5113
 Red. masses --      1.2364                 1.1205                 1.1608
 Frc consts  --      1.2013                 1.1245                 1.1889
 IR Inten    --     37.5547                15.7018                18.2858

                     49                     50                     51
                      A                      A                      A
 Frequencies --   1337.9093              1355.8951              1361.3470
 Red. masses --      1.2417                 1.3479                 1.3608
 Frc consts  --      1.3096                 1.4600                 1.4859
 IR Inten    --     17.7214                25.5588                10.5408

                     52                     53                     54
                      A                      A                      A
 Frequencies --   1372.1321              1383.6617              1384.7576
 Red. masses --      1.5428                 1.3562                 1.4707
 Frc consts  --      1.7114                 1.5298                 1.6615
 IR Inten    --     15.9154                10.2242                 5.3783

                     55                     56                     57
                      A                      A                      A
 Frequencies --   1392.4008              1394.5627              1404.2003
 Red. masses --      1.6371                 1.6233                 1.3136
 Frc consts  --      1.8701                 1.8600                 1.5260
 IR Inten    --     32.0793                 0.5842                 2.6624

                     58                     59                     60
                      A                      A                      A
 Frequencies --   1410.9714              1424.9304              1436.7656
 Red. masses --      1.4105                 1.4377                 1.3601
 Frc consts  --      1.6544                 1.7199                 1.6542
 IR Inten    --      2.8047                20.4267                 6.5467

                     61                     62                     63
                      A                      A                      A
 Frequencies --   1442.8953              1471.2870              1471.6753
 Red. masses --      1.3243                 1.1066                 1.0885
 Frc consts  --      1.6244                 1.4114                 1.3890
 IR Inten    --     36.6356                 6.0369                 5.6293

                     64                     65                     66
                      A                      A                      A
 Frequencies --   1473.7497              1481.6524              1489.6238
 Red. masses --      1.0876                 1.1205                 1.1217
 Frc consts  --      1.3918                 1.4492                 1.4665
 IR Inten    --     10.0390                19.0593                16.5588

                     67                     68                     69
                      A                      A                      A
 Frequencies --   1494.4133              1504.4085              1505.7759
 Red. masses --      1.0825                 1.0957                 1.1015
 Frc consts  --      1.4243                 1.4611                 1.4715
 IR Inten    --      7.9351                 5.4131                 9.2646

                     70                     71                     72
                      A                      A                      A
 Frequencies --   3028.4278              3036.7658              3058.6745
 Red. masses --      1.0701                 1.0718                 1.0812
 Frc consts  --      5.7821                 5.8236                 5.9597
 IR Inten    --     81.0069                39.9645                64.8961

                     73                     74                     75
                      A                      A                      A
 Frequencies --   3061.6339              3068.7172              3070.0413
 Red. masses --      1.0673                 1.0649                 1.0624
 Frc consts  --      5.8942                 5.9082                 5.8999
 IR Inten    --     22.7528                37.1984                57.4440

                     76                     77                     78
                      A                      A                      A
 Frequencies --   3074.7476              3079.7305              3082.3494
 Red. masses --      1.0658                 1.0649                 1.0611
 Frc consts  --      5.9367                 5.9509                 5.9400
 IR Inten    --     73.4411                12.7566                42.4005

                     79                     80                     81
                      A                      A                      A
 Frequencies --   3094.1828              3115.4995              3116.0211
 Red. masses --      1.0846                 1.0973                 1.1010
 Frc consts  --      6.1179                 6.2752                 6.2988
 IR Inten    --     74.2305                38.4048                34.7056

                     82                     83                     84
                      A                      A                      A
 Frequencies --   3119.6624              3126.1027              3132.4643
 Red. masses --      1.1020                 1.1026                 1.1033
 Frc consts  --      6.3192                 6.3486                 6.3784
 IR Inten    --     74.3725                54.4314                44.5518

                     85                     86                     87
                      A                      A                      A
 Frequencies --   3135.5022              3139.0730              3155.5860
 Red. masses --      1.0962                 1.1008                 1.0928
 Frc consts  --      6.3497                 6.3909                 6.4114
 IR Inten    --     55.0117                35.1309                28.1910

 - Thermochemistry -
 -------------------
 Temperature   298.150 Kelvin.  Pressure   1.00000 Atm.
 Atom     1 has atomic number  6 and mass  12.00000

 Molecular mass:   186.12559 amu.
 Principal axes and moments of inertia in atomic units:
                           1         2         3
     Eigenvalues --  1234.933663175.358363387.56458
           X            0.99999   0.00516   0.00034
           Y           -0.00517   0.99518   0.09798
           Z            0.00017  -0.09798   0.99519
 This molecule is an asymmetric top.
 Rotational symmetry number  1.
 Warning -- assumption of classical behavior for rotation
           may cause significant error
 Rotational temperatures (Kelvin)      0.07014     0.02728     0.02557
 Rotational constants (GHZ):           1.46141     0.56836     0.53275
 Zero-point vibrational energy     739012.5 (Joules/Mol)
                                  176.62822 (Kcal/Mol)
 Warning -- explicit consideration of  17 degrees of freedom as
           vibrations may cause significant error
 Vibrational temperatures:     88.09   134.18   182.62   216.37   272.02
          (Kelvin)            340.45   390.13   421.37   471.15   544.07
                              589.11   632.03   647.94   708.36   754.09
                              770.50   852.74   989.87  1067.70  1188.39
                             1205.73  1221.30  1246.32  1264.58  1301.87
                             1303.32  1316.24  1344.04  1363.26  1450.16
                             1488.97  1492.34  1526.03  1531.36  1538.81
                             1560.01  1586.49  1662.32  1675.64  1699.50
                             1720.80  1741.89  1770.57  1786.90  1794.35
                             1847.64  1877.80  1897.04  1924.95  1950.83
                             1958.67  1974.19  1990.78  1992.36  2003.35
                             2006.46  2020.33  2030.07  2050.16  2067.19
                             2076.00  2116.85  2117.41  2120.40  2131.77
                             2143.24  2150.13  2164.51  2166.48  4357.23
                             4369.23  4400.75  4405.01  4415.20  4417.10
                             4423.88  4431.05  4434.81  4451.84  4482.51
                             4483.26  4488.50  4497.76  4506.92  4511.29
                             4516.43  4540.18

 Zero-point correction=                           0.281475 (Hartree/Particle)
 Thermal correction to Energy=                    0.292853
 Thermal correction to Enthalpy=                  0.293797
 Thermal correction to Gibbs Free Energy=         0.244422
 Sum of electronic and zero-point Energies=           -617.225130
 Sum of electronic and thermal Energies=              -617.213752
 Sum of electronic and thermal Enthalpies=            -617.212808
 Sum of electronic and thermal Free Energies=         -617.262183

                     E (Thermal)             CV                S
                      KCal/Mol        Cal/Mol-Kelvin    Cal/Mol-Kelvin
 Total                  183.768             46.268            103.919
 Electronic               0.000              0.000              0.000
 Translational            0.889              2.981             41.570
 Rotational               0.889              2.981             30.964
 Vibrational            181.990             40.306             31.386
 Vibration     1          0.597              1.973              4.417
 Vibration     2          0.602              1.954              3.591
 Vibration     3          0.611              1.926              2.992
 Vibration     4          0.618              1.902              2.667
 Vibration     5          0.633              1.855              2.237
 Vibration     6          0.656              1.785              1.828
 Vibration     7          0.675              1.726              1.589
 Vibration     8          0.688              1.687              1.457
 Vibration     9          0.711              1.621              1.273
 Vibration    10          0.748              1.517              1.047
 Vibration    11          0.774              1.450              0.929
 Vibration    12          0.799              1.385              0.829
 Vibration    13          0.809              1.360              0.795
 Vibration    14          0.848              1.267              0.678
 Vibration    15          0.879              1.197              0.600
 Vibration    16          0.891              1.171              0.575
 Vibration    17          0.950              1.047              0.462

 Optimization completed.
    -- Stationary point found.
 Normal termination of Gaussian 16 at Sat Mar  9 01:29:41 2019.
