 Gaussian 16, Revision B.01,
 Gaussian 16:  ES64L-G16RevB.01 20-Dec-2017

 ----------------------------------------------------------------------
 #M062X/6-311++G(2d,2p) opt=ModRedundant freq=noraman SCRF=(SMD,solvent
 =water)
 ----------------------------------------------------------------------

 -------------------------------
 4c1_a1_a4_4c1_PSI.inp_extract_6
 -------------------------------
 Symbolic Z-matrix:
 Charge =  0 Multiplicity = 1

 SCF Done:  E(RM062X) =  -617.506270031     A.U. after   12 cycles
 SCF Done:  E(RM062X) =  -617.508203723     A.U. after   11 cycles
 SCF Done:  E(RM062X) =  -617.508515245     A.U. after   10 cycles
 SCF Done:  E(RM062X) =  -617.508620769     A.U. after    9 cycles
 SCF Done:  E(RM062X) =  -617.508625104     A.U. after    9 cycles
 SCF Done:  E(RM062X) =  -617.508629083     A.U. after    8 cycles
 SCF Done:  E(RM062X) =  -617.508629285     A.U. after    7 cycles
 Optimization completed.
    -- Stationary point found.
 Normal termination of Gaussian 16 at Fri Mar  8 23:57:22 2019.

 ----------------------------------------------------------------------
 #N Geom=AllCheck Guess=TCheck SCRF=Check GenChk RM062X/6-311++G(2d,2p)
  Freq
 ----------------------------------------------------------------------

 Structure from the checkpoint file:  "4c1_a1_a4_4c1_PSI.inp_extract_6.chk"
 -------------------------------
 4c1_a1_a4_4c1_PSI.inp_extract_6
 -------------------------------
 Charge =  0 Multiplicity = 1

                         Standard orientation:
 ---------------------------------------------------------------------
 Center     Atomic      Atomic             Coordinates (Angstroms)
 Number     Number       Type             X           Y           Z
 ---------------------------------------------------------------------
      1          6           0       -1.670493    0.019363   -1.342036
      2          6           0        1.122756   -0.708395   -0.803848
      3          6           0       -1.225350   -1.140938   -0.462311
      4          6           0        2.860280    1.075538    0.648924
      5          6           0       -2.741128    1.130293    0.434282
      6          8           0       -1.776922    1.232762   -0.613299
      7          6           0        2.817200   -0.403666    1.025615
      8          6           0        1.537458    1.484668    0.027614
      9          6           0        2.416337   -1.226874   -0.197224
     10          6           0       -2.359405    0.047968    1.428676
     11          8           0        1.221420    0.671533   -1.108472
     12          8           0        0.076957   -0.958652    0.103775
     13          6           0       -2.187338   -1.289002    0.708139
     14          1           0       -2.644498   -0.243539   -1.770749
     15          1           0       -0.972896    0.197320   -2.155921
     16          1           0        0.909607   -1.195674   -1.757359
     17          1           0       -1.215593   -2.046301   -1.076658
     18          1           0        3.662750    1.250179   -0.071969
     19          1           0        3.053793    1.700584    1.521198
     20          1           0       -2.783891    2.109598    0.906442
     21          1           0       -3.720661    0.911426   -0.006712
     22          1           0        2.090598   -0.554139    1.827248
     23          1           0        3.784648   -0.737365    1.399264
     24          1           0        1.565143    2.506654   -0.344120
     25          1           0        0.731109    1.407590    0.762176
     26          1           0        3.190898   -1.149251   -0.962431
     27          1           0        2.291120   -2.280877    0.047884
     28          1           0       -3.132652   -0.025760    2.193581
     29          1           0       -1.429389    0.331640    1.924893
     30          1           0       -1.823497   -2.060566    1.386359
     31          1           0       -3.150133   -1.620385    0.313854
 ---------------------------------------------------------------------

 SCF Done:  E(RM062X) =  -617.508629285     A.U. after    1 cycles

 The electronic state is 1-A.
 Alpha  occ. eigenvalues --  -19.63086 -19.62849 -19.62731 -10.63058 -10.58382
 Alpha  occ. eigenvalues --  -10.57351 -10.57297 -10.57110 -10.52585 -10.52388
 Alpha  occ. eigenvalues --  -10.52323 -10.52297 -10.52125  -1.19667  -1.16000
 Alpha  occ. eigenvalues --   -1.13056  -0.90491  -0.89151  -0.86302  -0.84255
 Alpha  occ. eigenvalues --   -0.74113  -0.73375  -0.72193  -0.70994  -0.65557
 Alpha  occ. eigenvalues --   -0.62282  -0.59762  -0.57518  -0.56949  -0.55233
 Alpha  occ. eigenvalues --   -0.53835  -0.52316  -0.52025  -0.49573  -0.49254
 Alpha  occ. eigenvalues --   -0.47804  -0.46769  -0.45536  -0.45115  -0.44729
 Alpha  occ. eigenvalues --   -0.43144  -0.42183  -0.40568  -0.39724  -0.38515
 Alpha  occ. eigenvalues --   -0.37724  -0.37426  -0.35991  -0.34930  -0.32790
 Alpha  occ. eigenvalues --   -0.31888
 Alpha virt. eigenvalues --    0.00312   0.01304   0.01330   0.01579   0.02751
 Alpha virt. eigenvalues --    0.03052   0.03250   0.03619   0.03642   0.05269
 Alpha virt. eigenvalues --    0.05386   0.05502   0.05959   0.06258   0.07588

 Mulliken charges:
               1
     1  C   -0.458817
     2  C   -0.029355
     3  C    0.251481
     4  C   -0.412523
     5  C   -0.255907
     6  O   -0.355604
     7  C   -0.301316
     8  C   -0.108171
     9  C   -0.451194
    10  C   -0.268687
    11  O   -0.312852
    12  O   -0.342444
    13  C   -0.531012
    14  H    0.204081
    15  H    0.251222
    16  H    0.250840
    17  H    0.261724
    18  H    0.167289
    19  H    0.179885
    20  H    0.211621
    21  H    0.173181
    22  H    0.172366
    23  H    0.195059
    24  H    0.221240
    25  H    0.144149
    26  H    0.200025
    27  H    0.192584
    28  H    0.196206
    29  H    0.158243
    30  H    0.181986
    31  H    0.214700
 Sum of Mulliken charges =  -0.00000

 Dipole moment (field-independent basis, Debye):
    X=             -1.0948    Y=             -2.5056    Z=              0.9842  Tot=              2.9061
 Quadrupole moment (field-independent basis, Debye-Ang):
   XX=            -67.9071   YY=            -79.6431   ZZ=            -79.3695
   XY=              2.6604   XZ=              0.2687   YZ=              7.1150

  Exact polarizability: 177.794   1.216 173.987  -0.691   3.947 171.465
 Approx polarizability: 144.077   1.789 142.925  -1.080   2.357 143.181

                      1                      2                      3
                      A                      A                      A
 Frequencies --     52.6318                76.6093               107.8960
 Red. masses --      3.6063                 3.8258                 3.6699
 Frc consts  --      0.0059                 0.0132                 0.0252
 IR Inten    --      0.4426                 1.6452                 4.0792

                      4                      5                      6
                      A                      A                      A
 Frequencies --    147.6368               183.9422               240.8323
 Red. masses --      3.6987                 3.3996                 2.7619
 Frc consts  --      0.0475                 0.0678                 0.0944
 IR Inten    --      1.3693                 4.3555                 8.1432

                      7                      8                      9
                      A                      A                      A
 Frequencies --    275.4649               293.4924               329.3648
 Red. masses --      3.4508                 2.2987                 2.2544
 Frc consts  --      0.1543                 0.1167                 0.1441
 IR Inten    --      6.4493                 8.8285                 4.6475

                     10                     11                     12
                      A                      A                      A
 Frequencies --    375.6964               407.2823               436.1573
 Red. masses --      2.1313                 2.2893                 3.0418
 Frc consts  --      0.1772                 0.2237                 0.3409
 IR Inten    --      7.0578                 3.4233                 4.9938

                     13                     14                     15
                      A                      A                      A
 Frequencies --    452.7059               493.2778               525.8137
 Red. masses --      2.3030                 3.7743                 2.5183
 Frc consts  --      0.2781                 0.5411                 0.4102
 IR Inten    --      8.7134                 5.3206                 2.7925

                     16                     17                     18
                      A                      A                      A
 Frequencies --    534.7142               597.6872               688.3007
 Red. masses --      2.0141                 3.0015                 2.9665
 Frc consts  --      0.3393                 0.6317                 0.8280
 IR Inten    --      4.5759                20.8148                12.1940

                     19                     20                     21
                      A                      A                      A
 Frequencies --    740.3787               834.9599               838.7743
 Red. masses --      2.4614                 1.8495                 2.8698
 Frc consts  --      0.7949                 0.7597                 1.1896
 IR Inten    --     12.7084                 4.7242                 5.4945

                     22                     23                     24
                      A                      A                      A
 Frequencies --    848.3559               867.7794               878.6662
 Red. masses --      2.9154                 2.1844                 1.5813
 Frc consts  --      1.2362                 0.9692                 0.7193
 IR Inten    --      8.8294                15.5166                16.2331

                     25                     26                     27
                      A                      A                      A
 Frequencies --    901.0177               904.9349               911.4931
 Red. masses --      2.4202                 2.6078                 2.3504
 Frc consts  --      1.1576                 1.2583                 1.1505
 IR Inten    --     58.8930                39.6844                14.5863

                     28                     29                     30
                      A                      A                      A
 Frequencies --    934.5118               946.8507              1008.6553
 Red. masses --      1.8108                 1.6470                 1.6775
 Frc consts  --      0.9317                 0.8700                 1.0055
 IR Inten    --      7.3354                19.6596                17.9882

                     31                     32                     33
                      A                      A                      A
 Frequencies --   1034.7584              1038.3161              1056.5195
 Red. masses --      2.2216                 2.3155                 1.7645
 Frc consts  --      1.4015                 1.4708                 1.1605
 IR Inten    --      9.7786                26.1151                 5.1533

                     34                     35                     36
                      A                      A                      A
 Frequencies --   1063.5878              1066.9595              1081.4261
 Red. masses --      1.7410                 1.7543                 2.0208
 Frc consts  --      1.1604                 1.1767                 1.3924
 IR Inten    --     35.3179                39.1295               202.3624

                     37                     38                     39
                      A                      A                      A
 Frequencies --   1099.7381              1151.6781              1154.7239
 Red. masses --      1.7503                 2.6003                 2.7428
 Frc consts  --      1.2472                 2.0321                 2.1548
 IR Inten    --    142.5638               106.4057               129.8223

                     40                     41                     42
                      A                      A                      A
 Frequencies --   1180.7470              1190.1183              1209.8525
 Red. masses --      2.4886                 3.6155                 1.4327
 Frc consts  --      2.0442                 3.0172                 1.2356
 IR Inten    --     31.9187               220.0478                34.6594

                     43                     44                     45
                      A                      A                      A
 Frequencies --   1229.5421              1235.6245              1244.0273
 Red. masses --      1.4512                 1.6909                 1.7923
 Frc consts  --      1.2926                 1.5211                 1.6343
 IR Inten    --     49.3989               121.8210                22.7822

                     46                     47                     48
                      A                      A                      A
 Frequencies --   1282.6177              1297.2872              1314.4408
 Red. masses --      1.2294                 1.1164                 1.1474
 Frc consts  --      1.1916                 1.1070                 1.1680
 IR Inten    --     30.7926                10.4825                13.0216

                     49                     50                     51
                      A                      A                      A
 Frequencies --   1335.4531              1356.6615              1361.3764
 Red. masses --      1.2229                 1.3383                 1.3170
 Frc consts  --      1.2850                 1.4512                 1.4381
 IR Inten    --     15.9958                25.2624                 4.2264

                     52                     53                     54
                      A                      A                      A
 Frequencies --   1371.1436              1381.8370              1385.4849
 Red. masses --      1.6184                 1.3419                 1.5126
 Frc consts  --      1.7927                 1.5097                 1.7107
 IR Inten    --     24.3045                18.2317                 2.7537

                     55                     56                     57
                      A                      A                      A
 Frequencies --   1391.1266              1392.7333              1399.2019
 Red. masses --      1.6302                 1.6315                 1.3395
 Frc consts  --      1.8588                 1.8645                 1.5451
 IR Inten    --     32.2014                 0.5391                 3.9688

                     58                     59                     60
                      A                      A                      A
 Frequencies --   1407.7042              1425.0868              1431.8958
 Red. masses --      1.4134                 1.4746                 1.3625
 Frc consts  --      1.6502                 1.7644                 1.6459
 IR Inten    --      6.3839                25.7969                 2.7953

                     61                     62                     63
                      A                      A                      A
 Frequencies --   1438.5821              1468.8154              1471.6214
 Red. masses --      1.3143                 1.0881                 1.1095
 Frc consts  --      1.6026                 1.3831                 1.4156
 IR Inten    --     28.8105                 6.6742                 4.7214

                     64                     65                     66
                      A                      A                      A
 Frequencies --   1474.4603              1479.5080              1491.0675
 Red. masses --      1.0872                 1.1219                 1.1099
 Frc consts  --      1.3926                 1.4469                 1.4539
 IR Inten    --      9.3185                17.5674                21.4331

                     67                     68                     69
                      A                      A                      A
 Frequencies --   1491.9336              1504.2627              1506.9482
 Red. masses --      1.0883                 1.1010                 1.0938
 Frc consts  --      1.4273                 1.4678                 1.4635
 IR Inten    --      2.1394                 8.6840                 4.6181

                     70                     71                     72
                      A                      A                      A
 Frequencies --   3031.5783              3038.8779              3057.5477
 Red. masses --      1.0698                 1.0714                 1.0824
 Frc consts  --      5.7931                 5.8294                 5.9621
 IR Inten    --     76.8592                44.5947                56.3743

                     73                     74                     75
                      A                      A                      A
 Frequencies --   3058.0115              3065.2787              3069.9059
 Red. masses --      1.0696                 1.0640                 1.0627
 Frc consts  --      5.8930                 5.8900                 5.9011
 IR Inten    --     57.0485                39.4543                50.7137

                     76                     77                     78
                      A                      A                      A
 Frequencies --   3074.8720              3078.2685              3078.5919
 Red. masses --      1.0631                 1.0636                 1.0649
 Frc consts  --      5.9223                 5.9378                 5.9467
 IR Inten    --     16.5481                65.6385                12.0106

                     79                     80                     81
                      A                      A                      A
 Frequencies --   3092.5561              3115.5419              3119.5190
 Red. masses --      1.0848                 1.0973                 1.1024
 Frc consts  --      6.1129                 6.2753                 6.3206
 IR Inten    --     76.4520                34.7465                53.4702

                     82                     83                     84
                      A                      A                      A
 Frequencies --   3119.7505              3125.9283              3131.5930
 Red. masses --      1.1004                 1.1043                 1.1032
 Frc consts  --      6.3104                 6.3579                 6.3745
 IR Inten    --     54.6945                58.3667                44.8989

                     85                     86                     87
                      A                      A                      A
 Frequencies --   3136.4968              3139.4892              3157.4102
 Red. masses --      1.0962                 1.0986                 1.0933
 Frc consts  --      6.3537                 6.3799                 6.4219
 IR Inten    --     46.1187                43.9417                25.4323

 - Thermochemistry -
 -------------------
 Temperature   298.150 Kelvin.  Pressure   1.00000 Atm.
 Atom     1 has atomic number  6 and mass  12.00000

 Molecular mass:   186.12559 amu.
 Principal axes and moments of inertia in atomic units:
                           1         2         3
     Eigenvalues --  1226.134923235.817953454.33524
           X            0.99998   0.00494   0.00263
           Y           -0.00514   0.99659   0.08229
           Z           -0.00221  -0.08230   0.99660
 This molecule is an asymmetric top.
 Rotational symmetry number  1.
 Warning -- assumption of classical behavior for rotation
           may cause significant error
 Rotational temperatures (Kelvin)      0.07064     0.02677     0.02507
 Rotational constants (GHZ):           1.47189     0.55774     0.52246
 Zero-point vibrational energy     738251.2 (Joules/Mol)
                                  176.44628 (Kcal/Mol)
 Warning -- explicit consideration of  17 degrees of freedom as
           vibrations may cause significant error
 Vibrational temperatures:     75.73   110.22   155.24   212.42   264.65
          (Kelvin)            346.50   396.33   422.27   473.88   540.54
                              585.99   627.53   651.34   709.72   756.53
                              769.33   859.94   990.31  1065.24  1201.32
                             1206.81  1220.59  1248.54  1264.20  1296.36
                             1302.00  1311.44  1344.55  1362.31  1451.23
                             1488.79  1493.91  1520.10  1530.27  1535.12
                             1555.93  1582.28  1657.01  1661.39  1698.83
                             1712.31  1740.71  1769.04  1777.79  1789.88
                             1845.40  1866.51  1891.19  1921.42  1951.93
                             1958.72  1972.77  1988.16  1993.40  2001.52
                             2003.83  2013.14  2025.37  2050.38  2060.18
                             2069.80  2113.30  2117.34  2121.42  2128.68
                             2145.31  2146.56  2164.30  2168.16  4361.76
                             4372.27  4399.13  4399.80  4410.25  4416.91
                             4424.05  4428.94  4429.41  4449.50  4482.57
                             4488.29  4488.63  4497.51  4505.66  4512.72
                             4517.02  4542.81

 Zero-point correction=                           0.281185 (Hartree/Particle)
 Thermal correction to Energy=                    0.292652
 Thermal correction to Enthalpy=                  0.293597
 Thermal correction to Gibbs Free Energy=         0.243717
 Sum of electronic and zero-point Energies=           -617.227444
 Sum of electronic and thermal Energies=              -617.215977
 Sum of electronic and thermal Enthalpies=            -617.215033
 Sum of electronic and thermal Free Energies=         -617.264913

                     E (Thermal)             CV                S
                      KCal/Mol        Cal/Mol-Kelvin    Cal/Mol-Kelvin
 Total                  183.642             46.331            104.981
 Electronic               0.000              0.000              0.000
 Translational            0.889              2.981             41.570
 Rotational               0.889              2.981             30.995
 Vibrational            181.865             40.370             32.417
 Vibration     1          0.596              1.977              4.716
 Vibration     2          0.599              1.965              3.976
 Vibration     3          0.606              1.943              3.306
 Vibration     4          0.617              1.905              2.702
 Vibration     5          0.631              1.862              2.288
 Vibration     6          0.658              1.778              1.797
 Vibration     7          0.677              1.719              1.562
 Vibration     8          0.688              1.686              1.454
 Vibration     9          0.712              1.617              1.263
 Vibration    10          0.747              1.522              1.056
 Vibration    11          0.772              1.454              0.936
 Vibration    12          0.797              1.391              0.839
 Vibration    13          0.811              1.355              0.788
 Vibration    14          0.849              1.265              0.675
 Vibration    15          0.881              1.193              0.597
 Vibration    16          0.890              1.173              0.577
 Vibration    17          0.956              1.037              0.454

 Optimization completed.
    -- Stationary point found.
 Normal termination of Gaussian 16 at Sat Mar  9 01:05:11 2019.
