 Gaussian 16, Revision B.01,
 Gaussian 16:  ES64L-G16RevB.01 20-Dec-2017

 ----------------------------------------------------------------------
 #M062X/6-311++G(2d,2p) opt=ModRedundant freq=noraman SCRF=(SMD,solvent
 =water)
 ----------------------------------------------------------------------

 --------------------------------
 4c1_a1_a4_4c1_PSI.inp_extract_11
 --------------------------------
 Symbolic Z-matrix:
 Charge =  0 Multiplicity = 1

 SCF Done:  E(RM062X) =  -617.499137170     A.U. after   13 cycles
 SCF Done:  E(RM062X) =  -617.500160838     A.U. after   12 cycles
 SCF Done:  E(RM062X) =  -617.501323224     A.U. after   11 cycles
 SCF Done:  E(RM062X) =  -617.501610899     A.U. after   11 cycles
 SCF Done:  E(RM062X) =  -617.502023751     A.U. after   10 cycles
 SCF Done:  E(RM062X) =  -617.502053886     A.U. after   10 cycles
 SCF Done:  E(RM062X) =  -617.502064573     A.U. after    9 cycles
 SCF Done:  E(RM062X) =  -617.502065231     A.U. after    8 cycles
 SCF Done:  E(RM062X) =  -617.502065244     A.U. after    6 cycles
 Optimization completed.
    -- Stationary point found.
 Normal termination of Gaussian 16 at Sat Mar  9 01:31:07 2019.

 ----------------------------------------------------------------------
 #N Geom=AllCheck Guess=TCheck SCRF=Check GenChk RM062X/6-311++G(2d,2p)
  Freq
 ----------------------------------------------------------------------

 Structure from the checkpoint file:  "4c1_a1_a4_4c1_PSI.inp_extract_11.chk"
 --------------------------------
 4c1_a1_a4_4c1_PSI.inp_extract_11
 --------------------------------
 Charge =  0 Multiplicity = 1

                         Standard orientation:
 ---------------------------------------------------------------------
 Center     Atomic      Atomic             Coordinates (Angstroms)
 Number     Number       Type             X           Y           Z
 ---------------------------------------------------------------------
      1          6           0       -1.988840   -1.370661   -0.245742
      2          6           0        0.824621   -0.749314   -0.500276
      3          6           0       -1.179168   -0.924252    0.959558
      4          6           0        3.007658    1.076524   -0.018478
      5          6           0       -2.779520    0.790202   -0.731473
      6          8           0       -2.115549   -0.366316   -1.241545
      7          6           0        3.121042   -0.369617    0.458849
      8          6           0        1.546845    1.483318   -0.085012
      9          6           0        2.254141   -1.265008   -0.424233
     10          6           0       -1.982838    1.433958    0.390148
     11          8           0        0.797008    0.600538   -0.925907
     12          8           0        0.248746   -0.919813    0.772353
     13          6           0       -1.702317    0.411021    1.490079
     14          1           0       -2.984190   -1.648464    0.118236
     15          1           0       -1.546446   -2.244131   -0.720996
     16          1           0        0.259615   -1.289195   -1.256958
     17          1           0       -1.331075   -1.679068    1.731897
     18          1           0        3.449259    1.173138   -1.013343
     19          1           0        3.537784    1.756543    0.649016
     20          1           0       -2.901405    1.467740   -1.573997
     21          1           0       -3.773141    0.495647   -0.373595
     22          1           0        2.788199   -0.438077    1.496717
     23          1           0        4.156647   -0.706832    0.428864
     24          1           0        1.424586    2.474076   -0.518113
     25          1           0        1.106988    1.490789    0.916630
     26          1           0        2.650639   -1.270474   -1.441257
     27          1           0        2.238779   -2.293333   -0.065372
     28          1           0       -2.553687    2.270342    0.795056
     29          1           0       -1.054828    1.832688   -0.014911
     30          1           0       -1.001711    0.800908    2.228898
     31          1           0       -2.637397    0.195422    2.013500
 ---------------------------------------------------------------------

 SCF Done:  E(RM062X) =  -617.502065244     A.U. after    1 cycles

 The electronic state is 1-A.
 Alpha  occ. eigenvalues --  -19.62878 -19.62873 -19.62664 -10.62962 -10.58479
 Alpha  occ. eigenvalues --  -10.57738 -10.57275 -10.57157 -10.52466 -10.52325
 Alpha  occ. eigenvalues --  -10.52279 -10.52145 -10.52001  -1.19285  -1.16061
 Alpha  occ. eigenvalues --   -1.12808  -0.90366  -0.89003  -0.86434  -0.84324
 Alpha  occ. eigenvalues --   -0.74591  -0.73593  -0.72462  -0.70503  -0.65579
 Alpha  occ. eigenvalues --   -0.62019  -0.58855  -0.58256  -0.56943  -0.54771
 Alpha  occ. eigenvalues --   -0.54138  -0.52178  -0.51152  -0.50321  -0.49572
 Alpha  occ. eigenvalues --   -0.48233  -0.45702  -0.45517  -0.45124  -0.44920
 Alpha  occ. eigenvalues --   -0.42476  -0.42205  -0.41283  -0.39587  -0.38943
 Alpha  occ. eigenvalues --   -0.37622  -0.36868  -0.36377  -0.33994  -0.32970
 Alpha  occ. eigenvalues --   -0.31640
 Alpha virt. eigenvalues --    0.00283   0.01244   0.01461   0.01506   0.02803
 Alpha virt. eigenvalues --    0.03058   0.03252   0.03622   0.03805   0.05236
 Alpha virt. eigenvalues --    0.05374   0.05722   0.06081   0.06202   0.07800

 Mulliken charges:
               1
     1  C   -0.431901
     2  C   -0.102671
     3  C    0.389941
     4  C   -0.465716
     5  C   -0.195505
     6  O   -0.339546
     7  C   -0.311479
     8  C   -0.052285
     9  C   -0.497827
    10  C   -0.313548
    11  O   -0.292985
    12  O   -0.376621
    13  C   -0.632983
    14  H    0.194572
    15  H    0.208561
    16  H    0.308321
    17  H    0.257213
    18  H    0.166740
    19  H    0.180844
    20  H    0.209563
    21  H    0.172989
    22  H    0.176367
    23  H    0.196802
    24  H    0.227273
    25  H    0.155184
    26  H    0.195334
    27  H    0.190028
    28  H    0.202328
    29  H    0.175358
    30  H    0.188249
    31  H    0.217400
 Sum of Mulliken charges =   0.00000

 Dipole moment (field-independent basis, Debye):
    X=             -0.6095    Y=              0.0159    Z=              2.5095  Tot=              2.5825
 Quadrupole moment (field-independent basis, Debye-Ang):
   XX=            -69.4760   YY=            -73.8548   ZZ=            -85.0856
   XY=              0.7612   XZ=             -5.5207   YZ=              1.6893

  Exact polarizability: 177.796   0.266 176.527  -1.510  -0.437 168.370
 Approx polarizability: 143.659   0.427 144.325  -1.604  -0.941 142.304

                      1                      2                      3
                      A                      A                      A
 Frequencies --     44.7378                75.8835               107.5971
 Red. masses --      3.4428                 4.2869                 3.6743
 Frc consts  --      0.0041                 0.0145                 0.0251
 IR Inten    --      3.5296                 2.1289                 3.0685

                      4                      5                      6
                      A                      A                      A
 Frequencies --    134.4969               192.0694               225.9080
 Red. masses --      3.6964                 3.6190                 2.6410
 Frc consts  --      0.0394                 0.0787                 0.0794
 IR Inten    --      1.8765                 8.9528                 3.4967

                      7                      8                      9
                      A                      A                      A
 Frequencies --    270.4699               308.0231               333.6961
 Red. masses --      2.6543                 2.3361                 2.4665
 Frc consts  --      0.1144                 0.1306                 0.1618
 IR Inten    --      5.3631                10.5673                 3.8653

                     10                     11                     12
                      A                      A                      A
 Frequencies --    367.6954               412.6130               438.7952
 Red. masses --      2.2259                 2.1563                 3.4884
 Frc consts  --      0.1773                 0.2163                 0.3957
 IR Inten    --      4.2919                 6.6773                11.2934

                     13                     14                     15
                      A                      A                      A
 Frequencies --    447.1573               491.1938               519.2056
 Red. masses --      2.2640                 4.4155                 2.5154
 Frc consts  --      0.2667                 0.6277                 0.3995
 IR Inten    --      3.9754                21.7454                 1.8978

                     16                     17                     18
                      A                      A                      A
 Frequencies --    531.8141               569.4438               674.3388
 Red. masses --      1.9800                 2.9822                 2.7731
 Frc consts  --      0.3299                 0.5698                 0.7430
 IR Inten    --      5.2184                23.9356                 4.7396

                     19                     20                     21
                      A                      A                      A
 Frequencies --    754.3420               798.7001               838.7344
 Red. masses --      2.3624                 3.0397                 1.5659
 Frc consts  --      0.7920                 1.1425                 0.6490
 IR Inten    --      5.1754                 5.0325                 2.6957

                     22                     23                     24
                      A                      A                      A
 Frequencies --    848.7402               859.3040               872.0017
 Red. masses --      3.3546                 1.7691                 2.4790
 Frc consts  --      1.4238                 0.7696                 1.1106
 IR Inten    --      6.2719                23.7960                13.3065

                     25                     26                     27
                      A                      A                      A
 Frequencies --    899.4365               903.8970               917.0330
 Red. masses --      2.3301                 2.6390                 2.3264
 Frc consts  --      1.1106                 1.2704                 1.1527
 IR Inten    --     39.1816                23.7329                37.8528

                     28                     29                     30
                      A                      A                      A
 Frequencies --    930.0420               959.8101               986.9692
 Red. masses --      1.8168                 1.7561                 2.0132
 Frc consts  --      0.9259                 0.9531                 1.1554
 IR Inten    --     14.1488                12.2847                49.9116

                     31                     32                     33
                      A                      A                      A
 Frequencies --   1034.6907              1039.1029              1062.7520
 Red. masses --      2.1170                 2.1585                 1.7809
 Frc consts  --      1.3353                 1.3731                 1.1851
 IR Inten    --     26.6546                 9.0272                 3.1626

                     34                     35                     36
                      A                      A                      A
 Frequencies --   1063.8486              1067.3098              1084.8408
 Red. masses --      1.6227                 1.7980                 2.1876
 Frc consts  --      1.0820                 1.2067                 1.5169
 IR Inten    --     40.7798                47.4764               198.8722

                     37                     38                     39
                      A                      A                      A
 Frequencies --   1102.1108              1156.8029              1160.2206
 Red. masses --      1.6282                 2.6342                 2.8375
 Frc consts  --      1.1652                 2.0769                 2.2504
 IR Inten    --     77.4955                64.8969               192.3307

                     40                     41                     42
                      A                      A                      A
 Frequencies --   1170.4990              1203.5120              1210.6596
 Red. masses --      2.4467                 2.3554                 1.7425
 Frc consts  --      1.9750                 2.0101                 1.5047
 IR Inten    --     33.0704               148.5352               117.8180

                     43                     44                     45
                      A                      A                      A
 Frequencies --   1229.3434              1237.0267              1241.3603
 Red. masses --      1.3464                 1.7700                 1.8254
 Frc consts  --      1.1989                 1.5958                 1.6573
 IR Inten    --     71.2569                64.4602                48.6507

                     46                     47                     48
                      A                      A                      A
 Frequencies --   1283.6693              1313.9922              1317.2681
 Red. masses --      1.2273                 1.1600                 1.1655
 Frc consts  --      1.1916                 1.1800                 1.1915
 IR Inten    --     30.4999                30.9471                26.5016

                     49                     50                     51
                      A                      A                      A
 Frequencies --   1342.5799              1357.2554              1362.5574
 Red. masses --      1.2757                 1.3590                 1.5498
 Frc consts  --      1.3548                 1.4750                 1.6953
 IR Inten    --     32.5131                 5.0146                 6.9762

                     52                     53                     54
                      A                      A                      A
 Frequencies --   1370.7070              1383.9522              1389.4166
 Red. masses --      1.3246                 1.4995                 1.6953
 Frc consts  --      1.4663                 1.6922                 1.9282
 IR Inten    --     11.9381                 1.5260                16.9473

                     55                     56                     57
                      A                      A                      A
 Frequencies --   1395.9572              1400.7081              1407.1034
 Red. masses --      1.5685                 1.2993                 1.3875
 Frc consts  --      1.8008                 1.5020                 1.6186
 IR Inten    --      5.6218                 2.0164                 4.6369

                     58                     59                     60
                      A                      A                      A
 Frequencies --   1416.1930              1426.9168              1431.9325
 Red. masses --      1.3013                 1.2975                 1.3822
 Frc consts  --      1.5377                 1.5565                 1.6698
 IR Inten    --     23.1715                 3.0901                 5.0222

                     61                     62                     63
                      A                      A                      A
 Frequencies --   1441.6109              1464.4022              1469.4168
 Red. masses --      1.3177                 1.0957                 1.1039
 Frc consts  --      1.6135                 1.3844                 1.4044
 IR Inten    --     50.1787                 4.0834                 5.6668

                     64                     65                     66
                      A                      A                      A
 Frequencies --   1473.7003              1474.9517              1490.2086
 Red. masses --      1.0902                 1.1146                 1.1160
 Frc consts  --      1.3950                 1.4286                 1.4602
 IR Inten    --      4.1101                22.0703                15.4625

                     67                     68                     69
                      A                      A                      A
 Frequencies --   1500.1626              1505.7302              1507.4164
 Red. masses --      1.0813                 1.0935                 1.0975
 Frc consts  --      1.4337                 1.4608                 1.4693
 IR Inten    --      3.5832                 3.6008                15.2799

                     70                     71                     72
                      A                      A                      A
 Frequencies --   3029.9995              3042.7536              3056.6690
 Red. masses --      1.0698                 1.0697                 1.0688
 Frc consts  --      5.7868                 5.8351                 5.8837
 IR Inten    --     84.9489                44.6331                48.0026

                     73                     74                     75
                      A                      A                      A
 Frequencies --   3064.7366              3065.3740              3072.0539
 Red. masses --      1.0647                 1.0634                 1.0632
 Frc consts  --      5.8921                 5.8874                 5.9119
 IR Inten    --     36.5536                28.8746                40.0344

                     76                     77                     78
                      A                      A                      A
 Frequencies --   3080.8165              3091.5637              3093.8027
 Red. masses --      1.0629                 1.0693                 1.0814
 Frc consts  --      5.9437                 6.0214                 6.0987
 IR Inten    --     29.9069                60.6644                51.3341

                     79                     80                     81
                      A                      A                      A
 Frequencies --   3114.6305              3115.8018              3120.4006
 Red. masses --      1.1002                 1.0976                 1.1024
 Frc consts  --      6.2883                 6.2780                 6.3245
 IR Inten    --     32.6832                44.0158                69.7258

                     82                     83                     84
                      A                      A                      A
 Frequencies --   3132.4708              3133.3660              3134.8542
 Red. masses --      1.1031                 1.0933                 1.0943
 Frc consts  --      6.3773                 6.3241                 6.3358
 IR Inten    --     48.8052                23.2775                26.8608

                     85                     86                     87
                      A                      A                      A
 Frequencies --   3135.8148              3142.5044              3148.7619
 Red. masses --      1.0984                 1.0894                 1.0986
 Frc consts  --      6.3638                 6.3388                 6.4176
 IR Inten    --     46.4987                57.5068                33.1341

 - Thermochemistry -
 -------------------
 Temperature   298.150 Kelvin.  Pressure   1.00000 Atm.
 Atom     1 has atomic number  6 and mass  12.00000

 Molecular mass:   186.12559 amu.
 Principal axes and moments of inertia in atomic units:
                           1         2         3
     Eigenvalues --  1170.367593173.658123438.36740
           X            0.99997  -0.00341  -0.00689
           Y            0.00365   0.99934   0.03627
           Z            0.00677  -0.03629   0.99932
 This molecule is an asymmetric top.
 Rotational symmetry number  1.
 Warning -- assumption of classical behavior for rotation
           may cause significant error
 Rotational temperatures (Kelvin)      0.07401     0.02729     0.02519
 Rotational constants (GHZ):           1.54203     0.56866     0.52488
 Zero-point vibrational energy     738588.8 (Joules/Mol)
                                  176.52697 (Kcal/Mol)
 Warning -- explicit consideration of  17 degrees of freedom as
           vibrations may cause significant error
 Vibrational temperatures:     64.37   109.18   154.81   193.51   276.34
          (Kelvin)            325.03   389.15   443.18   480.11   529.03
                              593.66   631.33   643.36   706.72   747.02
                              765.16   819.30   970.22  1085.33  1149.15
                             1206.75  1221.15  1236.35  1254.62  1294.09
                             1300.51  1319.41  1338.12  1380.95  1420.03
                             1488.69  1495.04  1529.06  1530.64  1535.62
                             1560.84  1585.69  1664.38  1669.30  1684.09
                             1731.59  1741.87  1768.75  1779.81  1786.04
                             1846.91  1890.54  1895.26  1931.67  1952.79
                             1960.42  1972.14  1991.20  1999.06  2008.47
                             2015.31  2024.51  2037.59  2053.02  2060.23
                             2074.16  2106.95  2114.16  2120.33  2122.13
                             2144.08  2158.40  2166.41  2168.84  4359.49
                             4377.84  4397.86  4409.47  4410.39  4420.00
                             4432.61  4448.07  4451.29  4481.26  4482.94
                             4489.56  4506.93  4508.21  4510.36  4511.74
                             4521.36  4530.37

 Zero-point correction=                           0.281314 (Hartree/Particle)
 Thermal correction to Energy=                    0.292856
 Thermal correction to Enthalpy=                  0.293800
 Thermal correction to Gibbs Free Energy=         0.243659
 Sum of electronic and zero-point Energies=           -617.220752
 Sum of electronic and thermal Energies=              -617.209209
 Sum of electronic and thermal Enthalpies=            -617.208265
 Sum of electronic and thermal Free Energies=         -617.258406

                     E (Thermal)             CV                S
                      KCal/Mol        Cal/Mol-Kelvin    Cal/Mol-Kelvin
 Total                  183.770             46.476            105.531
 Electronic               0.000              0.000              0.000
 Translational            0.889              2.981             41.570
 Rotational               0.889              2.981             30.924
 Vibrational            181.992             40.514             33.037
 Vibration     1          0.595              1.980              5.037
 Vibration     2          0.599              1.965              3.995
 Vibration     3          0.606              1.943              3.312
 Vibration     4          0.613              1.919              2.881
 Vibration     5          0.634              1.851              2.208
 Vibration     6          0.650              1.802              1.911
 Vibration     7          0.674              1.728              1.593
 Vibration     8          0.698              1.658              1.373
 Vibration     9          0.715              1.608              1.242
 Vibration    10          0.740              1.539              1.089
 Vibration    11          0.776              1.443              0.917
 Vibration    12          0.799              1.386              0.830
 Vibration    13          0.806              1.367              0.804
 Vibration    14          0.847              1.270              0.681
 Vibration    15          0.874              1.207              0.612
 Vibration    16          0.887              1.180              0.583
 Vibration    17          0.925              1.097              0.505

 Optimization completed.
    -- Stationary point found.
 Normal termination of Gaussian 16 at Sat Mar  9 02:40:01 2019.
