 Gaussian 16, Revision B.01,
 Gaussian 16:  ES64L-G16RevB.01 20-Dec-2017

 ----------------------------------------------------------------------
 #M062X/6-311++G(2d,2p) opt=ModRedundant freq=noraman SCRF=(SMD,solvent
 =water)
 ----------------------------------------------------------------------

 -------------------------------
 4c1_a1_a4_4c1_PSI.inp_extract_5
 -------------------------------
 Symbolic Z-matrix:
 Charge =  0 Multiplicity = 1

 SCF Done:  E(RM062X) =  -617.506198755     A.U. after   12 cycles
 SCF Done:  E(RM062X) =  -617.508027800     A.U. after   10 cycles
 SCF Done:  E(RM062X) =  -617.508203545     A.U. after    9 cycles
 SCF Done:  E(RM062X) =  -617.508265117     A.U. after    9 cycles
 SCF Done:  E(RM062X) =  -617.508269973     A.U. after    8 cycles
 SCF Done:  E(RM062X) =  -617.508270648     A.U. after    8 cycles
 SCF Done:  E(RM062X) =  -617.508270710     A.U. after    8 cycles
 Optimization completed.
    -- Stationary point found.
 Normal termination of Gaussian 16 at Fri Mar  8 23:37:57 2019.

 ----------------------------------------------------------------------
 #N Geom=AllCheck Guess=TCheck SCRF=Check GenChk RM062X/6-311++G(2d,2p)
  Freq
 ----------------------------------------------------------------------

 Structure from the checkpoint file:  "4c1_a1_a4_4c1_PSI.inp_extract_5.chk"
 -------------------------------
 4c1_a1_a4_4c1_PSI.inp_extract_5
 -------------------------------
 Charge =  0 Multiplicity = 1

                         Standard orientation:
 ---------------------------------------------------------------------
 Center     Atomic      Atomic             Coordinates (Angstroms)
 Number     Number       Type             X           Y           Z
 ---------------------------------------------------------------------
      1          6           0       -1.673808    0.395437   -1.281402
      2          6           0        1.162238   -0.625327   -0.860571
      3          6           0       -1.217009   -0.930341   -0.691460
      4          6           0        2.970702    0.926138    0.764213
      5          6           0       -2.876632    0.980411    0.653260
      6          8           0       -1.866491    1.378417   -0.274571
      7          6           0        2.778091   -0.558760    1.063247
      8          6           0        1.722127    1.481416    0.104341
      9          6           0        2.371971   -1.283655   -0.218367
     10          6           0       -2.496447   -0.306002    1.366370
     11          8           0        1.391776    0.755408   -1.086153
     12          8           0        0.046068   -0.826688   -0.027557
     13          6           0       -2.221929   -1.410547    0.345013
     14          1           0       -2.613263    0.225271   -1.819831
     15          1           0       -0.939966    0.792652   -1.977417
     16          1           0        0.962250   -1.042593   -1.848953
     17          1           0       -1.127843   -1.656962   -1.504237
     18          1           0        3.820524    1.060487    0.090464
     19          1           0        3.174221    1.490612    1.674642
     20          1           0       -2.990544    1.805641    1.353063
     21          1           0       -3.820246    0.848359    0.111188
     22          1           0        1.999302   -0.679947    1.819682
     23          1           0        3.691125   -0.995634    1.466201
     24          1           0        1.858477    2.513138   -0.212238
     25          1           0        0.876541    1.443021    0.796471
     26          1           0        3.189765   -1.239457   -0.940102
     27          1           0        2.142939   -2.332718   -0.034913
     28          1           0       -3.304584   -0.595235    2.038393
     29          1           0       -1.608628   -0.126314    1.975543
     30          1           0       -1.849717   -2.314278    0.826392
     31          1           0       -3.147004   -1.665756   -0.175956
 ---------------------------------------------------------------------

 SCF Done:  E(RM062X) =  -617.508270710     A.U. after    1 cycles

 The electronic state is 1-A.
 Alpha  occ. eigenvalues --  -19.63103 -19.62906 -19.62776 -10.63076 -10.58346
 Alpha  occ. eigenvalues --  -10.57318 -10.57289 -10.57143 -10.52578 -10.52395
 Alpha  occ. eigenvalues --  -10.52335 -10.52315 -10.52142  -1.19657  -1.16059
 Alpha  occ. eigenvalues --   -1.13072  -0.90494  -0.89170  -0.86362  -0.84180
 Alpha  occ. eigenvalues --   -0.73939  -0.73403  -0.72190  -0.71185  -0.65664
 Alpha  occ. eigenvalues --   -0.62335  -0.59725  -0.57488  -0.56897  -0.55211
 Alpha  occ. eigenvalues --   -0.53923  -0.52371  -0.51975  -0.49532  -0.49379
 Alpha  occ. eigenvalues --   -0.47787  -0.46712  -0.45573  -0.45194  -0.44675
 Alpha  occ. eigenvalues --   -0.43207  -0.42239  -0.40746  -0.39621  -0.38295
 Alpha  occ. eigenvalues --   -0.37761  -0.37555  -0.36077  -0.35148  -0.32782
 Alpha  occ. eigenvalues --   -0.31838
 Alpha virt. eigenvalues --    0.00326   0.01297   0.01313   0.01590   0.02719
 Alpha virt. eigenvalues --    0.03031   0.03218   0.03605   0.03719   0.05243
 Alpha virt. eigenvalues --    0.05307   0.05446   0.05959   0.06128   0.07623

 Mulliken charges:
               1
     1  C   -0.517159
     2  C   -0.014781
     3  C    0.245094
     4  C   -0.381561
     5  C   -0.232948
     6  O   -0.344285
     7  C   -0.308472
     8  C   -0.140234
     9  C   -0.410773
    10  C   -0.283245
    11  O   -0.329039
    12  O   -0.331965
    13  C   -0.512720
    14  H    0.202912
    15  H    0.255358
    16  H    0.256248
    17  H    0.255517
    18  H    0.168653
    19  H    0.179909
    20  H    0.209277
    21  H    0.169766
    22  H    0.171191
    23  H    0.191114
    24  H    0.216054
    25  H    0.149194
    26  H    0.196283
    27  H    0.190422
    28  H    0.188933
    29  H    0.164732
    30  H    0.182566
    31  H    0.213961
 Sum of Mulliken charges =  -0.00000

 Dipole moment (field-independent basis, Debye):
    X=             -1.0629    Y=             -2.8361    Z=              0.3652  Tot=              3.0507
 Quadrupole moment (field-independent basis, Debye-Ang):
   XX=            -67.7981   YY=            -81.2665   ZZ=            -77.7310
   XY=              2.7905   XZ=              1.6859   YZ=              5.7574

  Exact polarizability: 178.171   1.431 172.356  -0.594   3.275 172.341
 Approx polarizability: 144.204   1.963 141.724  -0.930   2.110 143.724

                      1                      2                      3
                      A                      A                      A
 Frequencies --     10.6814                55.1169                99.8525
 Red. masses --      3.7453                 4.1491                 3.5153
 Frc consts  --      0.0003                 0.0074                 0.0207
 IR Inten    --      0.2162                 2.4005                 3.9363

                      4                      5                      6
                      A                      A                      A
 Frequencies --    138.9603               180.9303               246.4114
 Red. masses --      3.4056                 3.2032                 2.7091
 Frc consts  --      0.0387                 0.0618                 0.0969
 IR Inten    --      1.9487                 3.4199                 9.8487

                      7                      8                      9
                      A                      A                      A
 Frequencies --    277.8885               288.7048               329.2256
 Red. masses --      3.3878                 2.3668                 2.3258
 Frc consts  --      0.1541                 0.1162                 0.1485
 IR Inten    --      4.0901                 8.4218                 4.5855

                     10                     11                     12
                      A                      A                      A
 Frequencies --    375.2035               404.9402               434.4167
 Red. masses --      2.2207                 2.2220                 2.8384
 Frc consts  --      0.1842                 0.2147                 0.3156
 IR Inten    --      6.8089                 4.6797                 3.3631

                     13                     14                     15
                      A                      A                      A
 Frequencies --    451.6818               488.2649               529.0885
 Red. masses --      2.4040                 3.7165                 2.5452
 Frc consts  --      0.2890                 0.5220                 0.4198
 IR Inten    --     10.3322                 4.6139                 2.8725

                     16                     17                     18
                      A                      A                      A
 Frequencies --    532.5361               596.1549               684.4805
 Red. masses --      1.9715                 3.2519                 2.9020
 Frc consts  --      0.3294                 0.6809                 0.8011
 IR Inten    --      4.0691                25.0940                12.6102

                     19                     20                     21
                      A                      A                      A
 Frequencies --    739.6173               834.8491               838.8918
 Red. masses --      2.4479                 1.5788                 3.4759
 Frc consts  --      0.7890                 0.6483                 1.4412
 IR Inten    --     10.6542                 1.9329                 8.2209

                     22                     23                     24
                      A                      A                      A
 Frequencies --    851.2780               867.7485               879.5978
 Red. masses --      3.2820                 2.1529                 1.5651
 Frc consts  --      1.4013                 0.9551                 0.7134
 IR Inten    --     13.3425                14.0740                18.6955

                     25                     26                     27
                      A                      A                      A
 Frequencies --    897.8792               903.5438               909.0142
 Red. masses --      2.4710                 2.5826                 2.3586
 Frc consts  --      1.1737                 1.2423                 1.1483
 IR Inten    --     59.9450                35.2399                22.5377

                     28                     29                     30
                      A                      A                      A
 Frequencies --    936.6818               948.1255              1008.8473
 Red. masses --      1.7727                 1.6965                 1.6579
 Frc consts  --      0.9164                 0.8985                 0.9941
 IR Inten    --      5.2407                17.7621                12.3015

                     31                     32                     33
                      A                      A                      A
 Frequencies --   1033.1245              1040.0475              1055.1113
 Red. masses --      2.1536                 2.2943                 1.7819
 Frc consts  --      1.3543                 1.4622                 1.1687
 IR Inten    --      6.6368                38.2704                 6.0885

                     34                     35                     36
                      A                      A                      A
 Frequencies --   1062.7063              1065.0173              1081.7005
 Red. masses --      1.5298                 2.1180                 2.4511
 Frc consts  --      1.0179                 1.4154                 1.6897
 IR Inten    --     41.9376                35.8007               292.7215

                     37                     38                     39
                      A                      A                      A
 Frequencies --   1100.3758              1149.0653              1151.0279
 Red. masses --      1.6604                 2.4333                 2.7463
 Frc consts  --      1.1846                 1.8930                 2.1437
 IR Inten    --    100.0507               123.6420               100.2983

                     40                     41                     42
                      A                      A                      A
 Frequencies --   1179.5286              1187.7610              1208.7663
 Red. masses --      2.7520                 3.2631                 1.4301
 Frc consts  --      2.2559                 2.7123                 1.2311
 IR Inten    --     82.4304               166.0395                24.7853

                     43                     44                     45
                      A                      A                      A
 Frequencies --   1227.6927              1233.6501              1242.3608
 Red. masses --      1.4619                 1.6478                 1.7382
 Frc consts  --      1.2983                 1.4775                 1.5806
 IR Inten    --     62.3105               101.7658                20.3532

                     46                     47                     48
                      A                      A                      A
 Frequencies --   1281.8833              1297.3610              1315.3511
 Red. masses --      1.2251                 1.1225                 1.1455
 Frc consts  --      1.1861                 1.1132                 1.1677
 IR Inten    --     33.4417                 7.3895                11.6826

                     49                     50                     51
                      A                      A                      A
 Frequencies --   1336.4952              1354.7493              1362.3452
 Red. masses --      1.2194                 1.3414                 1.3126
 Frc consts  --      1.2833                 1.4505                 1.4354
 IR Inten    --     15.6853                21.1997                 4.4237

                     52                     53                     54
                      A                      A                      A
 Frequencies --   1370.6919              1379.6323              1384.2587
 Red. masses --      1.6618                 1.3584                 1.5008
 Frc consts  --      1.8396                 1.5234                 1.6943
 IR Inten    --     21.8553                26.8196                 3.8842

                     55                     56                     57
                      A                      A                      A
 Frequencies --   1390.9362              1391.4747              1399.2581
 Red. masses --      1.7664                 1.4640                 1.3688
 Frc consts  --      2.0135                 1.6701                 1.5790
 IR Inten    --     30.5485                 8.7880                 8.1792

                     58                     59                     60
                      A                      A                      A
 Frequencies --   1406.6943              1424.8820              1430.7069
 Red. masses --      1.4154                 1.4312                 1.3734
 Frc consts  --      1.6501                 1.7120                 1.6563
 IR Inten    --      8.8757                21.3988                 9.5765

                     61                     62                     63
                      A                      A                      A
 Frequencies --   1443.5575              1469.3206              1470.8140
 Red. masses --      1.2941                 1.0881                 1.1080
 Frc consts  --      1.5889                 1.3840                 1.4122
 IR Inten    --     13.6429                 6.2200                 4.8965

                     64                     65                     66
                      A                      A                      A
 Frequencies --   1473.7330              1479.8480              1489.6316
 Red. masses --      1.0881                 1.1251                 1.1128
 Frc consts  --      1.3923                 1.4518                 1.4549
 IR Inten    --      9.4591                16.6626                19.7667

                     67                     68                     69
                      A                      A                      A
 Frequencies --   1492.3970              1506.1153              1507.0871
 Red. masses --      1.0867                 1.1005                 1.0918
 Frc consts  --      1.4260                 1.4708                 1.4611
 IR Inten    --      2.9208                 7.9201                 3.9058

                     70                     71                     72
                      A                      A                      A
 Frequencies --   3032.3225              3038.5400              3059.2035
 Red. masses --      1.0699                 1.0711                 1.0693
 Frc consts  --      5.7962                 5.8267                 5.8961
 IR Inten    --     77.5831                51.1930                35.3771

                     73                     74                     75
                      A                      A                      A
 Frequencies --   3063.7019              3065.5793              3069.4576
 Red. masses --      1.0816                 1.0645                 1.0626
 Frc consts  --      5.9815                 5.8942                 5.8983
 IR Inten    --     44.5206                40.4586                55.7250

                     76                     77                     78
                      A                      A                      A
 Frequencies --   3076.4331              3079.3867              3079.7366
 Red. masses --      1.0634                 1.0648                 1.0642
 Frc consts  --      5.9296                 5.9488                 5.9470
 IR Inten    --     15.8655                71.6158                 9.7330

                     79                     80                     81
                      A                      A                      A
 Frequencies --   3095.4452              3116.7369              3120.2453
 Red. masses --      1.0853                 1.0969                 1.1023
 Frc consts  --      6.1271                 6.2779                 6.3233
 IR Inten    --     79.2896                35.1709                69.3895

                     82                     83                     84
                      A                      A                      A
 Frequencies --   3121.4252              3128.0693              3131.9192
 Red. masses --      1.1003                 1.1041                 1.1034
 Frc consts  --      6.3162                 6.3655                 6.3768
 IR Inten    --     38.8034                56.3586                44.5542

                     85                     86                     87
                      A                      A                      A
 Frequencies --   3137.7262              3139.9579              3160.7278
 Red. masses --      1.0963                 1.0991                 1.0936
 Frc consts  --      6.3593                 6.3845                 6.4372
 IR Inten    --     45.1727                42.1444                20.3860

 - Thermochemistry -
 -------------------
 Temperature   298.150 Kelvin.  Pressure   1.00000 Atm.
 Atom     1 has atomic number  6 and mass  12.00000

 Molecular mass:   186.12559 amu.
 Principal axes and moments of inertia in atomic units:
                           1         2         3
     Eigenvalues --  1213.002873391.846363619.40307
           X            0.99998   0.00508   0.00485
           Y           -0.00534   0.99839   0.05641
           Z           -0.00456  -0.05643   0.99840
 This molecule is an asymmetric top.
 Rotational symmetry number  1.
 Warning -- assumption of classical behavior for rotation
           may cause significant error
 Rotational temperatures (Kelvin)      0.07140     0.02554     0.02393
 Rotational constants (GHZ):           1.48783     0.53208     0.49863
 Zero-point vibrational energy     737703.5 (Joules/Mol)
                                  176.31536 (Kcal/Mol)
 Warning -- explicit consideration of  17 degrees of freedom as
           vibrations may cause significant error
 Vibrational temperatures:     15.37    79.30   143.67   199.93   260.32
          (Kelvin)            354.53   399.82   415.38   473.68   539.83
                              582.62   625.03   649.87   702.50   761.24
                              766.20   857.73   984.81  1064.14  1201.16
                             1206.98  1224.80  1248.50  1265.55  1291.85
                             1300.00  1307.87  1347.68  1364.14  1451.51
                             1486.44  1496.40  1518.07  1529.00  1532.32
                             1556.33  1583.20  1653.25  1656.07  1697.08
                             1708.92  1739.15  1766.38  1774.95  1787.48
                             1844.34  1866.61  1892.50  1922.92  1949.18
                             1960.11  1972.12  1984.98  1991.64  2001.25
                             2002.02  2013.22  2023.92  2050.09  2058.47
                             2076.96  2114.02  2116.17  2120.37  2129.17
                             2143.25  2147.23  2166.96  2168.36  4362.84
                             4371.78  4401.51  4407.98  4410.68  4416.26
                             4426.30  4430.55  4431.05  4453.66  4484.29
                             4489.34  4491.03  4500.59  4506.13  4514.49
                             4517.70  4547.58

 Zero-point correction=                           0.280976 (Hartree/Particle)
 Thermal correction to Energy=                    0.292621
 Thermal correction to Enthalpy=                  0.293565
 Thermal correction to Gibbs Free Energy=         0.241687
 Sum of electronic and zero-point Energies=           -617.227294
 Sum of electronic and thermal Energies=              -617.215649
 Sum of electronic and thermal Enthalpies=            -617.214705
 Sum of electronic and thermal Free Energies=         -617.266584

                     E (Thermal)             CV                S
                      KCal/Mol        Cal/Mol-Kelvin    Cal/Mol-Kelvin
 Total                  183.623             46.415            109.188
 Electronic               0.000              0.000              0.000
 Translational            0.889              2.981             41.570
 Rotational               0.889              2.981             31.077
 Vibrational            181.845             40.453             36.541
 Vibration     1          0.593              1.987              7.880
 Vibration     2          0.596              1.976              4.625
 Vibration     3          0.604              1.949              3.457
 Vibration     4          0.615              1.914              2.818
 Vibration     5          0.630              1.866              2.319
 Vibration     6          0.661              1.769              1.756
 Vibration     7          0.679              1.714              1.547
 Vibration     8          0.685              1.695              1.482
 Vibration     9          0.712              1.617              1.264
 Vibration    10          0.746              1.523              1.058
 Vibration    11          0.770              1.459              0.945
 Vibration    12          0.795              1.395              0.844
 Vibration    13          0.810              1.357              0.791
 Vibration    14          0.844              1.276              0.688
 Vibration    15          0.884              1.186              0.589
 Vibration    16          0.888              1.178              0.582
 Vibration    17          0.954              1.040              0.456

 Optimization completed.
    -- Stationary point found.
 Normal termination of Gaussian 16 at Sat Mar  9 00:45:35 2019.
