 Gaussian 16, Revision B.01,
 Gaussian 16:  ES64L-G16RevB.01 20-Dec-2017

 ----------------------------------------------------------------------
 #M062X/6-311++G(2d,2p) opt=ModRedundant freq=noraman SCRF=(SMD,solvent
 =water)
 ----------------------------------------------------------------------

 --------------------------------
 4c1_a1_a4_4c1_PSI.inp_extract_16
 --------------------------------
 Symbolic Z-matrix:
 Charge =  0 Multiplicity = 1

 SCF Done:  E(RM062X) =  -617.497574448     A.U. after   13 cycles
 SCF Done:  E(RM062X) =  -617.498634255     A.U. after   11 cycles
 SCF Done:  E(RM062X) =  -617.499939526     A.U. after   10 cycles
 SCF Done:  E(RM062X) =  -617.500298819     A.U. after   10 cycles
 SCF Done:  E(RM062X) =  -617.500420861     A.U. after   10 cycles
 SCF Done:  E(RM062X) =  -617.500426925     A.U. after    9 cycles
 SCF Done:  E(RM062X) =  -617.500430387     A.U. after    9 cycles
 SCF Done:  E(RM062X) =  -617.500430798     A.U. after    8 cycles
 Optimization completed.
    -- Stationary point found.
 Normal termination of Gaussian 16 at Sat Mar  9 02:21:54 2019.

 ----------------------------------------------------------------------
 #N Geom=AllCheck Guess=TCheck SCRF=Check GenChk RM062X/6-311++G(2d,2p)
  Freq
 ----------------------------------------------------------------------

 Structure from the checkpoint file:  "4c1_a1_a4_4c1_PSI.inp_extract_16.chk"
 --------------------------------
 4c1_a1_a4_4c1_PSI.inp_extract_16
 --------------------------------
 Charge =  0 Multiplicity = 1

                         Standard orientation:
 ---------------------------------------------------------------------
 Center     Atomic      Atomic             Coordinates (Angstroms)
 Number     Number       Type             X           Y           Z
 ---------------------------------------------------------------------
      1          6           0       -2.183219   -1.144506    0.863327
      2          6           0        0.712411   -0.313390   -0.593182
      3          6           0       -1.048628   -0.179146    1.168862
      4          6           0        3.393484    0.476294    0.113716
      5          6           0       -3.112095    0.189833   -0.831559
      6          8           0       -2.564696   -1.087629   -0.505469
      7          6           0        3.031009   -1.007414    0.091226
      8          6           0        2.153239    1.309903    0.380998
      9          6           0        1.882680   -1.239324   -0.889816
     10          6           0       -2.082240    1.293953   -0.659970
     11          8           0        1.128786    1.037025   -0.580642
     12          8           0        0.171858   -0.725791    0.640156
     13          6           0       -1.463559    1.229717    0.737051
     14          1           0       -3.045418   -0.904558    1.495897
     15          1           0       -1.871023   -2.167728    1.062663
     16          1           0       -0.036639   -0.373168   -1.380949
     17          1           0       -0.891373   -0.175747    2.248011
     18          1           0        3.813499    0.768310   -0.851907
     19          1           0        4.140042    0.688905    0.879510
     20          1           0       -3.457681    0.123459   -1.861061
     21          1           0       -3.976965    0.374809   -0.184234
     22          1           0        2.732697   -1.324797    1.092400
     23          1           0        3.892513   -1.610137   -0.194597
     24          1           0        2.359106    2.374646    0.294578
     25          1           0        1.767132    1.115107    1.385692
     26          1           0        2.216588   -1.022564   -1.906133
     27          1           0        1.532898   -2.270692   -0.865270
     28          1           0       -2.574079    2.257290   -0.800049
     29          1           0       -1.321056    1.209242   -1.434236
     30          1           0       -0.637284    1.927982    0.843607
     31          1           0       -2.229035    1.525283    1.459809
 ---------------------------------------------------------------------

 SCF Done:  E(RM062X) =  -617.500430798     A.U. after    1 cycles

 The electronic state is 1-A.
 Alpha  occ. eigenvalues --  -19.62920 -19.62779 -19.62753 -10.62975 -10.58453
 Alpha  occ. eigenvalues --  -10.57318 -10.57285 -10.57199 -10.52658 -10.52305
 Alpha  occ. eigenvalues --  -10.52265 -10.52260 -10.52151  -1.19340  -1.16118
 Alpha  occ. eigenvalues --   -1.12728  -0.90369  -0.88812  -0.87013  -0.83984
 Alpha  occ. eigenvalues --   -0.74437  -0.73393  -0.72477  -0.70427  -0.66012
 Alpha  occ. eigenvalues --   -0.61802  -0.59278  -0.58059  -0.56415  -0.54340
 Alpha  occ. eigenvalues --   -0.53970  -0.52500  -0.52082  -0.50253  -0.49317
 Alpha  occ. eigenvalues --   -0.47849  -0.46087  -0.45754  -0.45054  -0.44726
 Alpha  occ. eigenvalues --   -0.43402  -0.42329  -0.39807  -0.39608  -0.38529
 Alpha  occ. eigenvalues --   -0.37940  -0.37119  -0.35971  -0.35120  -0.32974
 Alpha  occ. eigenvalues --   -0.31105
 Alpha virt. eigenvalues --    0.00294   0.01243   0.01376   0.01609   0.02758
 Alpha virt. eigenvalues --    0.03054   0.03148   0.03659   0.03876   0.05218
 Alpha virt. eigenvalues --    0.05272   0.05469   0.06081   0.06112   0.07618

 Mulliken charges:
               1
     1  C   -0.361171
     2  C   -0.061124
     3  C    0.188646
     4  C   -0.443442
     5  C   -0.296352
     6  O   -0.343870
     7  C   -0.276182
     8  C   -0.086432
     9  C   -0.638012
    10  C   -0.191102
    11  O   -0.264911
    12  O   -0.342720
    13  C   -0.553065
    14  H    0.183859
    15  H    0.208998
    16  H    0.304477
    17  H    0.254018
    18  H    0.164716
    19  H    0.181870
    20  H    0.199082
    21  H    0.172885
    22  H    0.177824
    23  H    0.192294
    24  H    0.216156
    25  H    0.153762
    26  H    0.202126
    27  H    0.191859
    28  H    0.204127
    29  H    0.213015
    30  H    0.177105
    31  H    0.271563
 Sum of Mulliken charges =  -0.00000

 Dipole moment (field-independent basis, Debye):
    X=             -0.0022    Y=              1.8493    Z=              1.7793  Tot=              2.5663
 Quadrupole moment (field-independent basis, Debye-Ang):
   XX=            -71.1756   YY=            -82.3385   ZZ=            -77.3997
   XY=             -5.2320   XZ=             -2.8460   YZ=              0.9739

  Exact polarizability: 178.983  -0.266 172.427   0.073  -0.462 172.043
 Approx polarizability: 143.595  -0.552 142.502  -0.229  -0.761 144.485

                      1                      2                      3
                      A                      A                      A
 Frequencies --     35.3080                64.7194               114.8714
 Red. masses --      3.8301                 4.0739                 3.9938
 Frc consts  --      0.0028                 0.0101                 0.0311
 IR Inten    --      2.0849                 3.7056                 0.9679

                      4                      5                      6
                      A                      A                      A
 Frequencies --    126.2934               199.7736               227.3588
 Red. masses --      3.4873                 3.1101                 3.2868
 Frc consts  --      0.0328                 0.0731                 0.1001
 IR Inten    --      7.4448                 6.8180                 4.4682

                      7                      8                      9
                      A                      A                      A
 Frequencies --    268.2465               301.0510               347.4959
 Red. masses --      2.8799                 2.2356                 2.5391
 Frc consts  --      0.1221                 0.1194                 0.1806
 IR Inten    --      0.5388                 5.1693                 4.6870

                     10                     11                     12
                      A                      A                      A
 Frequencies --    358.0933               404.1313               441.4181
 Red. masses --      2.1489                 2.1034                 3.5984
 Frc consts  --      0.1624                 0.2024                 0.4131
 IR Inten    --      0.8183                13.6694                16.7152

                     13                     14                     15
                      A                      A                      A
 Frequencies --    449.5927               483.4278               525.6109
 Red. masses --      2.2569                 3.8825                 2.4680
 Frc consts  --      0.2688                 0.5346                 0.4017
 IR Inten    --     13.2880                 5.0954                 7.6824

                     16                     17                     18
                      A                      A                      A
 Frequencies --    541.9510               603.0435               681.1221
 Red. masses --      1.8826                 3.0530                 3.1670
 Frc consts  --      0.3258                 0.6541                 0.8657
 IR Inten    --      0.5290                20.2765                 7.3182

                     19                     20                     21
                      A                      A                      A
 Frequencies --    755.5282               799.8192               836.5319
 Red. masses --      2.2640                 2.9521                 1.6090
 Frc consts  --      0.7614                 1.1127                 0.6634
 IR Inten    --      8.1490                 5.2211                 0.7748

                     22                     23                     24
                      A                      A                      A
 Frequencies --    847.3565               863.5717               871.2879
 Red. masses --      3.1799                 1.6885                 2.5637
 Frc consts  --      1.3452                 0.7419                 1.1467
 IR Inten    --      5.0029                15.5202                18.9272

                     25                     26                     27
                      A                      A                      A
 Frequencies --    899.1584               902.2591               914.9114
 Red. masses --      2.5649                 2.2320                 2.4288
 Frc consts  --      1.2218                 1.0705                 1.1978
 IR Inten    --     50.0448                18.6243                25.6101

                     28                     29                     30
                      A                      A                      A
 Frequencies --    931.3624               966.5883               983.3652
 Red. masses --      1.7910                 1.7580                 2.0483
 Frc consts  --      0.9153                 0.9677                 1.1670
 IR Inten    --     16.7945                11.6718                59.7067

                     31                     32                     33
                      A                      A                      A
 Frequencies --   1034.8228              1037.3507              1059.2404
 Red. masses --      2.2067                 2.1947                 1.7592
 Frc consts  --      1.3923                 1.3915                 1.1629
 IR Inten    --     62.7676                 4.5915                 8.3522

                     34                     35                     36
                      A                      A                      A
 Frequencies --   1065.1558              1068.0313              1085.9157
 Red. masses --      1.6910                 1.6706                 1.9779
 Frc consts  --      1.1304                 1.1228                 1.3742
 IR Inten    --     33.7800                19.3192               163.1890

                     37                     38                     39
                      A                      A                      A
 Frequencies --   1096.2936              1147.7646              1159.4896
 Red. masses --      1.7137                 3.1294                 2.2271
 Frc consts  --      1.2135                 2.4289                 1.7641
 IR Inten    --     97.9493               104.5133                46.2138

                     40                     41                     42
                      A                      A                      A
 Frequencies --   1171.2348              1203.1034              1208.2776
 Red. masses --      2.4936                 2.7232                 1.4542
 Frc consts  --      2.0154                 2.3224                 1.2508
 IR Inten    --    115.6875               152.8223                39.4751

                     43                     44                     45
                      A                      A                      A
 Frequencies --   1234.5110              1240.7342              1242.2513
 Red. masses --      1.4726                 1.8009                 1.7601
 Frc consts  --      1.3223                 1.6334                 1.6003
 IR Inten    --    155.2286                63.6749                58.7824

                     46                     47                     48
                      A                      A                      A
 Frequencies --   1281.2841              1312.6648              1315.5681
 Red. masses --      1.2257                 1.1695                 1.1806
 Frc consts  --      1.1856                 1.1873                 1.2038
 IR Inten    --     30.0448                36.1633                32.7602

                     49                     50                     51
                      A                      A                      A
 Frequencies --   1339.1546              1355.4712              1361.5160
 Red. masses --      1.2698                 1.3650                 1.5703
 Frc consts  --      1.3416                 1.4776                 1.7150
 IR Inten    --     34.2544                 6.8956                 5.7282

                     52                     53                     54
                      A                      A                      A
 Frequencies --   1370.8972              1381.7763              1385.3460
 Red. masses --      1.3622                 1.5089                 1.4451
 Frc consts  --      1.5084                 1.6974                 1.6340
 IR Inten    --      3.1745                 3.4500                 2.7367

                     55                     56                     57
                      A                      A                      A
 Frequencies --   1388.9812              1393.8810              1405.9146
 Red. masses --      1.5500                 1.3993                 1.3553
 Frc consts  --      1.7619                 1.6018                 1.5783
 IR Inten    --     15.4505                33.8786                 0.1256

                     58                     59                     60
                      A                      A                      A
 Frequencies --   1410.1160              1422.0796              1429.6462
 Red. masses --      1.4343                 1.2968                 1.3591
 Frc consts  --      1.6804                 1.5452                 1.6366
 IR Inten    --     14.5963                15.1234                 7.7037

                     61                     62                     63
                      A                      A                      A
 Frequencies --   1444.2268              1468.7726              1469.3367
 Red. masses --      1.3427                 1.1032                 1.1062
 Frc consts  --      1.6501                 1.4022                 1.4071
 IR Inten    --     33.6498                16.0963                 4.6090

                     64                     65                     66
                      A                      A                      A
 Frequencies --   1472.7143              1490.2906              1491.4186
 Red. masses --      1.0883                 1.0863                 1.1121
 Frc consts  --      1.3907                 1.4215                 1.4575
 IR Inten    --      8.0202                 3.6434                12.8087

                     67                     68                     69
                      A                      A                      A
 Frequencies --   1500.9579              1503.7050              1508.8580
 Red. masses --      1.0993                 1.0958                 1.1048
 Frc consts  --      1.4591                 1.4599                 1.4819
 IR Inten    --     13.2558                 5.9137                12.8575

                     70                     71                     72
                      A                      A                      A
 Frequencies --   3033.5766              3038.5727              3055.9540
 Red. masses --      1.0698                 1.0685                 1.0695
 Frc consts  --      5.8003                 5.8126                 5.8848
 IR Inten    --     76.5549                60.2552                54.1067

                     73                     74                     75
                      A                      A                      A
 Frequencies --   3064.9514              3065.1320              3074.4145
 Red. masses --      1.0709                 1.0637                 1.0630
 Frc consts  --      5.9270                 5.8882                 5.9198
 IR Inten    --     39.4038                33.6352                38.5977

                     76                     77                     78
                      A                      A                      A
 Frequencies --   3081.6114              3090.6134              3095.2270
 Red. masses --      1.0629                 1.0629                 1.0859
 Frc consts  --      5.9472                 5.9819                 6.1297
 IR Inten    --     27.6313                28.8213                64.2443

                     79                     80                     81
                      A                      A                      A
 Frequencies --   3115.2025              3120.3394              3122.2109
 Red. masses --      1.0975                 1.1019                 1.0925
 Frc consts  --      6.2752                 6.3210                 6.2750
 IR Inten    --     55.4513                59.1528                55.2826

                     82                     83                     84
                      A                      A                      A
 Frequencies --   3132.5745              3133.7684              3139.0772
 Red. masses --      1.1033                 1.0934                 1.0979
 Frc consts  --      6.3786                 6.3265                 6.3743
 IR Inten    --     47.3840                16.3733                35.8117

                     85                     86                     87
                      A                      A                      A
 Frequencies --   3139.8847              3141.3417              3148.8843
 Red. masses --      1.0966                 1.0965                 1.0943
 Frc consts  --      6.3698                 6.3750                 6.3932
 IR Inten    --     44.8878                75.3603                26.9854

 - Thermochemistry -
 -------------------
 Temperature   298.150 Kelvin.  Pressure   1.00000 Atm.
 Atom     1 has atomic number  6 and mass  12.00000

 Molecular mass:   186.12559 amu.
 Principal axes and moments of inertia in atomic units:
                           1         2         3
     Eigenvalues --  1061.789313482.961873789.04753
           X            0.99991  -0.01344  -0.00142
           Y            0.01346   0.99976   0.01712
           Z            0.00119  -0.01714   0.99985
 This molecule is an asymmetric top.
 Rotational symmetry number  1.
 Warning -- assumption of classical behavior for rotation
           may cause significant error
 Rotational temperatures (Kelvin)      0.08157     0.02487     0.02286
 Rotational constants (GHZ):           1.69972     0.51816     0.47630
 Zero-point vibrational energy     738678.1 (Joules/Mol)
                                  176.54831 (Kcal/Mol)
 Warning -- explicit consideration of  17 degrees of freedom as
           vibrations may cause significant error
 Vibrational temperatures:     50.80    93.12   165.27   181.71   287.43
          (Kelvin)            327.12   385.95   433.15   499.97   515.22
                              581.45   635.10   646.86   695.54   756.24
                              779.75   867.65   979.98  1087.04  1150.76
                             1203.58  1219.16  1242.49  1253.59  1293.69
                             1298.15  1316.35  1340.02  1390.71  1414.84
                             1488.88  1492.52  1524.01  1532.52  1536.66
                             1562.39  1577.32  1651.38  1668.25  1685.15
                             1731.00  1738.44  1776.19  1785.14  1787.32
                             1843.48  1888.63  1892.81  1926.74  1950.22
                             1958.92  1972.42  1988.07  1993.20  1998.43
                             2005.48  2022.80  2028.84  2046.06  2056.94
                             2077.92  2113.24  2114.05  2118.91  2144.20
                             2145.82  2159.54  2163.50  2170.91  4364.64
                             4371.83  4396.84  4409.78  4410.04  4423.40
                             4433.75  4446.70  4453.34  4482.08  4489.47
                             4492.17  4507.08  4508.79  4516.43  4517.59
                             4519.69  4530.54

 Zero-point correction=                           0.281348 (Hartree/Particle)
 Thermal correction to Energy=                    0.292904
 Thermal correction to Enthalpy=                  0.293848
 Thermal correction to Gibbs Free Energy=         0.243352
 Sum of electronic and zero-point Energies=           -617.219083
 Sum of electronic and thermal Energies=              -617.207527
 Sum of electronic and thermal Enthalpies=            -617.206583
 Sum of electronic and thermal Free Energies=         -617.257079

                     E (Thermal)             CV                S
                      KCal/Mol        Cal/Mol-Kelvin    Cal/Mol-Kelvin
 Total                  183.800             46.402            106.277
 Electronic               0.000              0.000              0.000
 Translational            0.889              2.981             41.570
 Rotational               0.889              2.981             31.017
 Vibrational            182.022             40.441             33.690
 Vibration     1          0.594              1.982              5.506
 Vibration     2          0.597              1.971              4.308
 Vibration     3          0.608              1.937              3.185
 Vibration     4          0.611              1.927              3.002
 Vibration     5          0.638              1.840              2.135
 Vibration     6          0.651              1.799              1.900
 Vibration     7          0.673              1.732              1.607
 Vibration     8          0.693              1.672              1.411
 Vibration     9          0.725              1.580              1.178
 Vibration    10          0.733              1.559              1.130
 Vibration    11          0.769              1.461              0.948
 Vibration    12          0.801              1.380              0.822
 Vibration    13          0.808              1.362              0.797
 Vibration    14          0.840              1.287              0.701
 Vibration    15          0.881              1.193              0.597
 Vibration    16          0.897              1.157              0.561
 Vibration    17          0.961              1.025              0.444

 Optimization completed.
    -- Stationary point found.
 Normal termination of Gaussian 16 at Sat Mar  9 03:29:55 2019.
