 Gaussian 16, Revision B.01,
 Gaussian 16:  ES64L-G16RevB.01 20-Dec-2017

 ----------------------------------------------------------------------
 #M062X/6-311++G(2d,2p) opt=ModRedundant freq=noraman SCRF=(SMD,solvent
 =water)
 ----------------------------------------------------------------------

 --------------------------------
 4c1_a1_a4_4c1_PSI.inp_extract_21
 --------------------------------
 Symbolic Z-matrix:
 Charge =  0 Multiplicity = 1

 SCF Done:  E(RM062X) =  -617.506973991     A.U. after   12 cycles
 SCF Done:  E(RM062X) =  -617.508990783     A.U. after   10 cycles
 SCF Done:  E(RM062X) =  -617.509066363     A.U. after   10 cycles
 SCF Done:  E(RM062X) =  -617.509246193     A.U. after    9 cycles
 SCF Done:  E(RM062X) =  -617.509254189     A.U. after    9 cycles
 SCF Done:  E(RM062X) =  -617.509255589     A.U. after    8 cycles
 SCF Done:  E(RM062X) =  -617.509255062     A.U. after    7 cycles
 Optimization completed.
    -- Stationary point found.
 Normal termination of Gaussian 16 at Sat Mar  9 03:59:30 2019.

 ----------------------------------------------------------------------
 #N Geom=AllCheck Guess=TCheck SCRF=Check GenChk RM062X/6-311++G(2d,2p)
  Freq
 ----------------------------------------------------------------------

 Structure from the checkpoint file:  "4c1_a1_a4_4c1_PSI.inp_extract_21.chk"
 --------------------------------
 4c1_a1_a4_4c1_PSI.inp_extract_21
 --------------------------------
 Charge =  0 Multiplicity = 1

                         Standard orientation:
 ---------------------------------------------------------------------
 Center     Atomic      Atomic             Coordinates (Angstroms)
 Number     Number       Type             X           Y           Z
 ---------------------------------------------------------------------
      1          6           0       -1.912163   -0.362375    1.472034
      2          6           0        0.918379    0.137413   -0.806294
      3          6           0       -0.930814    0.501309    0.701571
      4          6           0        3.499854   -0.041781    0.454931
      5          6           0       -3.439941   -0.434447   -0.322900
      6          8           0       -2.673622   -1.196295    0.609463
      7          6           0        2.837019   -1.313951   -0.068368
      8          6           0        2.438140    0.977045    0.824628
      9          6           0        1.887418   -0.959500   -1.210751
     10          6           0       -2.546549    0.416883   -1.209464
     11          8           0        1.586456    1.272305   -0.290338
     12          8           0        0.028934   -0.403897    0.142333
     13          6           0       -1.680689    1.325994   -0.340580
     14          1           0       -2.579739    0.286303    2.048588
     15          1           0       -1.380680   -1.022186    2.155526
     16          1           0        0.370726    0.506308   -1.673362
     17          1           0       -0.424133    1.163716    1.408263
     18          1           0        4.148003    0.382865   -0.315551
     19          1           0        4.114903   -0.248448    1.331218
     20          1           0       -4.013301   -1.153511   -0.904163
     21          1           0       -4.137898    0.204610    0.230567
     22          1           0        2.281767   -1.793462    0.740397
     23          1           0        3.585232   -2.026419   -0.413987
     24          1           0        2.876799    1.929070    1.114966
     25          1           0        1.831037    0.608925    1.656496
     26          1           0        2.458256   -0.588200   -2.063683
     27          1           0        1.314897   -1.824493   -1.544365
     28          1           0       -3.167465    1.004420   -1.885851
     29          1           0       -1.917643   -0.236321   -1.818517
     30          1           0       -0.998616    1.929999   -0.936337
     31          1           0       -2.320219    2.020382    0.209294
 ---------------------------------------------------------------------

 SCF Done:  E(RM062X) =  -617.509255062     A.U. after    1 cycles

 The electronic state is 1-A.
 Alpha  occ. eigenvalues --  -19.63118 -19.63100 -19.62905 -10.63017 -10.58301
 Alpha  occ. eigenvalues --  -10.57570 -10.57344 -10.57305 -10.52585 -10.52439
 Alpha  occ. eigenvalues --  -10.52369 -10.52326 -10.52199  -1.19872  -1.16188
 Alpha  occ. eigenvalues --   -1.12902  -0.90477  -0.89031  -0.87116  -0.84074
 Alpha  occ. eigenvalues --   -0.74491  -0.73488  -0.72127  -0.70712  -0.65788
 Alpha  occ. eigenvalues --   -0.61936  -0.59511  -0.58296  -0.56836  -0.55300
 Alpha  occ. eigenvalues --   -0.53406  -0.52803  -0.51772  -0.50786  -0.49192
 Alpha  occ. eigenvalues --   -0.46931  -0.46623  -0.45852  -0.45472  -0.44919
 Alpha  occ. eigenvalues --   -0.43419  -0.42569  -0.40234  -0.39657  -0.38831
 Alpha  occ. eigenvalues --   -0.38071  -0.37331  -0.35707  -0.34374  -0.33174
 Alpha  occ. eigenvalues --   -0.32429
 Alpha virt. eigenvalues --    0.00335   0.01319   0.01335   0.01547   0.02753
 Alpha virt. eigenvalues --    0.02933   0.03151   0.03790   0.03998   0.05043
 Alpha virt. eigenvalues --    0.05170   0.05370   0.05828   0.06466   0.07669

 Mulliken charges:
               1
     1  C   -0.438041
     2  C   -0.002879
     3  C    0.119635
     4  C   -0.397110
     5  C   -0.238533
     6  O   -0.371920
     7  C   -0.312501
     8  C   -0.109885
     9  C   -0.476279
    10  C   -0.292753
    11  O   -0.326656
    12  O   -0.350138
    13  C   -0.342474
    14  H    0.203157
    15  H    0.206941
    16  H    0.273482
    17  H    0.234566
    18  H    0.168609
    19  H    0.179601
    20  H    0.209624
    21  H    0.160949
    22  H    0.174153
    23  H    0.189139
    24  H    0.215726
    25  H    0.138790
    26  H    0.199298
    27  H    0.191179
    28  H    0.184009
    29  H    0.157821
    30  H    0.207566
    31  H    0.244924
 Sum of Mulliken charges =   0.00000

 Dipole moment (field-independent basis, Debye):
    X=              0.3961    Y=              2.0987    Z=              0.0515  Tot=              2.1364
 Quadrupole moment (field-independent basis, Debye-Ang):
   XX=            -71.3356   YY=            -86.1718   ZZ=            -74.1749
   XY=             -9.2883   XZ=              3.6419   YZ=              4.0146

  Exact polarizability: 180.450  -0.375 168.972   2.752   2.423 173.695
 Approx polarizability: 144.333  -0.018 141.925   1.541   0.913 143.674

                      1                      2                      3
                      A                      A                      A
 Frequencies --     54.1803                76.9895               107.4296
 Red. masses --      3.7674                 3.5164                 3.8662
 Frc consts  --      0.0065                 0.0123                 0.0263
 IR Inten    --      1.7659                 2.4552                 4.4169

                      4                      5                      6
                      A                      A                      A
 Frequencies --    143.7570               187.5874               236.0093
 Red. masses --      3.6448                 3.1077                 3.1808
 Frc consts  --      0.0444                 0.0644                 0.1044
 IR Inten    --      1.4172                 0.4787                20.2917

                      7                      8                      9
                      A                      A                      A
 Frequencies --    270.2849               283.1106               352.1374
 Red. masses --      3.1052                 2.1293                 2.2755
 Frc consts  --      0.1337                 0.1006                 0.1662
 IR Inten    --      1.7629                 4.3854                 7.5499

                     10                     11                     12
                      A                      A                      A
 Frequencies --    390.0033               402.4461               435.3493
 Red. masses --      1.9824                 2.3676                 3.3224
 Frc consts  --      0.1777                 0.2259                 0.3710
 IR Inten    --      3.6938                 8.8615                18.1238

                     13                     14                     15
                      A                      A                      A
 Frequencies --    446.9439               498.1494               523.3151
 Red. masses --      2.4033                 3.2570                 2.3592
 Frc consts  --      0.2828                 0.4762                 0.3807
 IR Inten    --      0.5089                 6.7062                 8.1696

                     16                     17                     18
                      A                      A                      A
 Frequencies --    547.2579               598.9572               682.2935
 Red. masses --      2.3544                 3.0009                 2.6919
 Frc consts  --      0.4154                 0.6343                 0.7383
 IR Inten    --      6.1760                 2.7302                 7.3425

                     19                     20                     21
                      A                      A                      A
 Frequencies --    750.4919               830.5658               839.0983
 Red. masses --      2.6256                 1.6208                 3.5657
 Frc consts  --      0.8713                 0.6587                 1.4792
 IR Inten    --      6.0236                 4.3115                10.6928

                     22                     23                     24
                      A                      A                      A
 Frequencies --    845.6225               868.6117               881.1428
 Red. masses --      3.0157                 2.2148                 1.5798
 Frc consts  --      1.2706                 0.9845                 0.7227
 IR Inten    --      4.7167                 7.3325                10.6925

                     25                     26                     27
                      A                      A                      A
 Frequencies --    903.4515               909.8880               919.0384
 Red. masses --      2.3030                 2.4832                 2.2918
 Frc consts  --      1.1075                 1.2112                 1.1405
 IR Inten    --     12.9651                23.9502                62.8479

                     28                     29                     30
                      A                      A                      A
 Frequencies --    931.8555               949.3198              1006.9076
 Red. masses --      1.9477                 1.6447                 1.9156
 Frc consts  --      0.9965                 0.8733                 1.1443
 IR Inten    --      8.9858                28.6449                57.7519

                     31                     32                     33
                      A                      A                      A
 Frequencies --   1033.0048              1039.1422              1055.3826
 Red. masses --      2.1655                 2.3657                 1.7976
 Frc consts  --      1.3615                 1.5051                 1.1797
 IR Inten    --     27.2144                31.7433                16.8832

                     34                     35                     36
                      A                      A                      A
 Frequencies --   1063.7956              1069.9659              1086.2836
 Red. masses --      1.7298                 1.6358                 2.0222
 Frc consts  --      1.1534                 1.1034                 1.4059
 IR Inten    --     42.6645                18.3519               179.3429

                     37                     38                     39
                      A                      A                      A
 Frequencies --   1096.2114              1146.9743              1168.3979
 Red. masses --      1.6941                 2.8783                 2.3287
 Frc consts  --      1.1994                 2.2310                 1.8730
 IR Inten    --     30.4489               179.9991                17.4942

                     40                     41                     42
                      A                      A                      A
 Frequencies --   1177.3351              1203.9043              1213.7216
 Red. masses --      2.2500                 2.8226                 1.4031
 Frc consts  --      1.8375                 2.4103                 1.2178
 IR Inten    --     57.1289               150.5030                27.0472

                     43                     44                     45
                      A                      A                      A
 Frequencies --   1227.7682              1240.6199              1243.9524
 Red. masses --      1.6145                 1.7642                 1.9514
 Frc consts  --      1.4339                 1.5999                 1.7791
 IR Inten    --    141.8160                 1.2331               189.1312

                     46                     47                     48
                      A                      A                      A
 Frequencies --   1285.7670              1295.8759              1320.3730
 Red. masses --      1.2571                 1.1220                 1.1585
 Frc consts  --      1.2245                 1.1101                 1.1899
 IR Inten    --     57.1696                15.2883                21.6960

                     49                     50                     51
                      A                      A                      A
 Frequencies --   1336.7265              1359.1445              1365.8639
 Red. masses --      1.2152                 1.3677                 1.2987
 Frc consts  --      1.2794                 1.4885                 1.4275
 IR Inten    --     17.2014                 5.5610                 0.8936

                     52                     53                     54
                      A                      A                      A
 Frequencies --   1367.4473              1377.8898              1386.3164
 Red. masses --      1.6678                 1.4253                 1.5292
 Frc consts  --      1.8374                 1.5943                 1.7316
 IR Inten    --     12.5524                23.1522                 4.5304

                     55                     56                     57
                      A                      A                      A
 Frequencies --   1392.2890              1400.6710              1406.6975
 Red. masses --      1.5793                 1.4644                 1.4419
 Frc consts  --      1.8037                 1.6927                 1.6810
 IR Inten    --      8.8386                20.0779                 2.8331

                     58                     59                     60
                      A                      A                      A
 Frequencies --   1410.2659              1426.3724              1432.9958
 Red. masses --      1.3226                 1.3478                 1.4021
 Frc consts  --      1.5498                 1.6157                 1.6964
 IR Inten    --      3.7142                 7.4386                18.0842

                     61                     62                     63
                      A                      A                      A
 Frequencies --   1441.6156              1467.8783              1471.8395
 Red. masses --      1.4164                 1.1078                 1.0899
 Frc consts  --      1.7344                 1.4063                 1.3912
 IR Inten    --     18.5173                 6.8769                 7.2967

                     64                     65                     66
                      A                      A                      A
 Frequencies --   1472.5717              1487.5837              1490.3746
 Red. masses --      1.0967                 1.0939                 1.1178
 Frc consts  --      1.4012                 1.4262                 1.4628
 IR Inten    --      9.2660                 7.6071                12.7470

                     67                     68                     69
                      A                      A                      A
 Frequencies --   1496.6221              1504.0360              1504.6877
 Red. masses --      1.0994                 1.0986                 1.0944
 Frc consts  --      1.4509                 1.4643                 1.4599
 IR Inten    --     21.1812                10.6332                 5.4921

                     70                     71                     72
                      A                      A                      A
 Frequencies --   3029.8448              3049.3155              3058.3256
 Red. masses --      1.0701                 1.0675                 1.0692
 Frc consts  --      5.7876                 5.8484                 5.8923
 IR Inten    --     74.6170                42.4477                45.9191

                     73                     74                     75
                      A                      A                      A
 Frequencies --   3066.0459              3067.3260              3071.8810
 Red. masses --      1.0636                 1.0772                 1.0673
 Frc consts  --      5.8912                 5.9713                 5.9342
 IR Inten    --     51.8916                49.5671                 6.1167

                     76                     77                     78
                      A                      A                      A
 Frequencies --   3073.1461              3079.9578              3081.5126
 Red. masses --      1.0629                 1.0693                 1.0633
 Frc consts  --      5.9144                 5.9764                 5.9489
 IR Inten    --     40.3692                73.4904                36.3701

                     79                     80                     81
                      A                      A                      A
 Frequencies --   3108.5161              3116.8121              3121.0344
 Red. masses --      1.0869                 1.0974                 1.1026
 Frc consts  --      6.1877                 6.2814                 6.3281
 IR Inten    --     61.3935                28.8870                69.7660

                     82                     83                     84
                      A                      A                      A
 Frequencies --   3122.2910              3131.3630              3133.9413
 Red. masses --      1.1007                 1.1038                 1.0965
 Frc consts  --      6.3219                 6.3767                 6.3454
 IR Inten    --     48.6392                40.0659                46.7355

                     85                     86                     87
                      A                      A                      A
 Frequencies --   3136.4784              3137.9344              3141.1830
 Red. masses --      1.0968                 1.0976                 1.0986
 Frc consts  --      6.3570                 6.3676                 6.3866
 IR Inten    --     44.1650                33.3669                41.4562

 - Thermochemistry -
 -------------------
 Temperature   298.150 Kelvin.  Pressure   1.00000 Atm.
 Atom     1 has atomic number  6 and mass  12.00000

 Molecular mass:   186.12559 amu.
 Principal axes and moments of inertia in atomic units:
                           1         2         3
     Eigenvalues --  1016.768253915.427793996.72607
           X            0.99984  -0.01711   0.00530
           Y            0.01607   0.98750   0.15677
           Z           -0.00792  -0.15666   0.98762
 This molecule is an asymmetric top.
 Rotational symmetry number  1.
 Warning -- assumption of classical behavior for rotation
           may cause significant error
 Rotational temperatures (Kelvin)      0.08519     0.02212     0.02167
 Rotational constants (GHZ):           1.77498     0.46093     0.45155
 Zero-point vibrational energy     739097.6 (Joules/Mol)
                                  176.64857 (Kcal/Mol)
 Warning -- explicit consideration of  17 degrees of freedom as
           vibrations may cause significant error
 Vibrational temperatures:     77.95   110.77   154.57   206.83   269.90
          (Kelvin)            339.56   388.88   407.33   506.65   561.13
                              579.03   626.37   643.05   716.73   752.93
                              787.38   861.77   981.67  1079.79  1195.00
                             1207.28  1216.66  1249.74  1267.77  1299.87
                             1309.13  1322.29  1340.73  1365.86  1448.72
                             1486.26  1495.09  1518.46  1530.56  1539.44
                             1562.92  1577.20  1650.24  1681.06  1693.92
                             1732.15  1746.27  1766.48  1784.98  1789.77
                             1849.93  1864.48  1899.72  1923.25  1955.51
                             1965.17  1967.45  1982.48  1994.60  2003.19
                             2015.25  2023.92  2029.06  2052.23  2061.76
                             2074.16  2111.95  2117.65  2118.70  2140.30
                             2144.32  2153.31  2163.97  2164.91  4359.27
                             4387.28  4400.25  4411.36  4413.20  4419.75
                             4421.57  4431.37  4433.61  4472.46  4484.40
                             4490.47  4492.28  4505.33  4509.04  4512.69
                             4514.79  4519.46

 Zero-point correction=                           0.281507 (Hartree/Particle)
 Thermal correction to Energy=                    0.292953
 Thermal correction to Enthalpy=                  0.293897
 Thermal correction to Gibbs Free Energy=         0.243990
 Sum of electronic and zero-point Energies=           -617.227748
 Sum of electronic and thermal Energies=              -617.216302
 Sum of electronic and thermal Enthalpies=            -617.215358
 Sum of electronic and thermal Free Energies=         -617.265265

                     E (Thermal)             CV                S
                      KCal/Mol        Cal/Mol-Kelvin    Cal/Mol-Kelvin
 Total                  183.831             46.226            105.038
 Electronic               0.000              0.000              0.000
 Translational            0.889              2.981             41.570
 Rotational               0.889              2.981             31.143
 Vibrational            182.053             40.264             32.325
 Vibration     1          0.596              1.976              4.659
 Vibration     2          0.599              1.965              3.966
 Vibration     3          0.606              1.943              3.315
 Vibration     4          0.616              1.909              2.753
 Vibration     5          0.632              1.857              2.252
 Vibration     6          0.655              1.786              1.833
 Vibration     7          0.674              1.728              1.594
 Vibration     8          0.682              1.705              1.515
 Vibration     9          0.729              1.571              1.157
 Vibration    10          0.758              1.492              1.000
 Vibration    11          0.768              1.465              0.954
 Vibration    12          0.796              1.393              0.841
 Vibration    13          0.806              1.368              0.805
 Vibration    14          0.854              1.254              0.663
 Vibration    15          0.878              1.198              0.602
 Vibration    16          0.902              1.146              0.550
 Vibration    17          0.957              1.034              0.451

 Optimization completed.
    -- Stationary point found.
 Normal termination of Gaussian 16 at Sat Mar  9 05:07:10 2019.
