 Gaussian 16, Revision B.01,
 Gaussian 16:  ES64L-G16RevB.01 20-Dec-2017

 ----------------------------------------------------------------------
 #M062X/6-311++G(2d,2p) opt=ModRedundant freq=noraman SCRF=(SMD,solvent
 =water)
 ----------------------------------------------------------------------

 --------------------------------
 4c1_a1_a4_4c1_PSI.inp_extract_22
 --------------------------------
 Symbolic Z-matrix:
 Charge =  0 Multiplicity = 1

 SCF Done:  E(RM062X) =  -617.507046102     A.U. after   12 cycles
 SCF Done:  E(RM062X) =  -617.508961742     A.U. after   10 cycles
 SCF Done:  E(RM062X) =  -617.509154704     A.U. after   10 cycles
 SCF Done:  E(RM062X) =  -617.509215784     A.U. after    9 cycles
 SCF Done:  E(RM062X) =  -617.509244263     A.U. after    9 cycles
 SCF Done:  E(RM062X) =  -617.509218097     A.U. after    8 cycles
 SCF Done:  E(RM062X) =  -617.509213747     A.U. after    8 cycles
 SCF Done:  E(RM062X) =  -617.509214327     A.U. after    7 cycles
 SCF Done:  E(RM062X) =  -617.509215832     A.U. after    7 cycles
 SCF Done:  E(RM062X) =  -617.509217255     A.U. after    8 cycles
 SCF Done:  E(RM062X) =  -617.509216855     A.U. after    7 cycles
 SCF Done:  E(RM062X) =  -617.509211581     A.U. after    8 cycles
 SCF Done:  E(RM062X) =  -617.509211497     A.U. after    7 cycles
 SCF Done:  E(RM062X) =  -617.509212052     A.U. after    7 cycles
 Optimization completed.
    -- Stationary point found.
 Normal termination of Gaussian 16 at Sat Mar  9 04:28:32 2019.

 ----------------------------------------------------------------------
 #N Geom=AllCheck Guess=TCheck SCRF=Check GenChk RM062X/6-311++G(2d,2p)
  Freq
 ----------------------------------------------------------------------

 Structure from the checkpoint file:  "4c1_a1_a4_4c1_PSI.inp_extract_22.chk"
 --------------------------------
 4c1_a1_a4_4c1_PSI.inp_extract_22
 --------------------------------
 Charge =  0 Multiplicity = 1

                         Standard orientation:
 ---------------------------------------------------------------------
 Center     Atomic      Atomic             Coordinates (Angstroms)
 Number     Number       Type             X           Y           Z
 ---------------------------------------------------------------------
      1          6           0       -1.795176   -1.402321    0.539561
      2          6           0        0.988106    0.873769   -0.207452
      3          6           0       -0.927140   -0.184002    0.794714
      4          6           0        3.462561   -0.554393    0.138340
      5          6           0       -3.457573   -0.137312   -0.553941
      6          8           0       -2.579079   -1.259275   -0.637449
      7          6           0        2.780455   -0.565768   -1.227858
      8          6           0        2.426295   -0.364577    1.230207
      9          6           0        1.931238    0.694207   -1.384119
     10          6           0       -2.685820    1.159184   -0.376228
     11          8           0        1.672323    0.838019    1.028778
     12          8           0        0.011861   -0.140566   -0.284394
     13          6           0       -1.802114    1.064653    0.865033
     14          1           0       -2.448063   -1.560560    1.404274
     15          1           0       -1.174579   -2.285292    0.396444
     16          1           0        0.515617    1.856052   -0.234503
     17          1           0       -0.393365   -0.332022    1.735553
     18          1           0        4.183409    0.265467    0.186072
     19          1           0        4.002803   -1.484297    0.318007
     20          1           0       -4.037152   -0.136127   -1.474695
     21          1           0       -4.141695   -0.285565    0.289888
     22          1           0        2.147767   -1.451888   -1.310425
     23          1           0        3.517861   -0.619049   -2.028029
     24          1           0        2.887139   -0.257731    2.209597
     25          1           0        1.744076   -1.219160    1.260950
     26          1           0        2.577029    1.573345   -1.419012
     27          1           0        1.344165    0.675005   -2.301886
     28          1           0       -3.390468    1.986107   -0.287332
     29          1           0       -2.073957    1.338722   -1.262598
     30          1           0       -1.197805    1.960986    0.997605
     31          1           0       -2.428615    0.969956    1.755067
 ---------------------------------------------------------------------

 SCF Done:  E(RM062X) =  -617.509212053     A.U. after    1 cycles

 The electronic state is 1-A.
 Alpha  occ. eigenvalues --  -19.63122 -19.63091 -19.62886 -10.63033 -10.58193
 Alpha  occ. eigenvalues --  -10.57548 -10.57323 -10.57323 -10.52514 -10.52436
 Alpha  occ. eigenvalues --  -10.52332 -10.52318 -10.52209  -1.19897  -1.16168
 Alpha  occ. eigenvalues --   -1.12947  -0.90462  -0.89033  -0.87023  -0.84039
 Alpha  occ. eigenvalues --   -0.74357  -0.73435  -0.72120  -0.70829  -0.65757
 Alpha  occ. eigenvalues --   -0.62035  -0.59400  -0.58180  -0.57004  -0.55301
 Alpha  occ. eigenvalues --   -0.53477  -0.52782  -0.51423  -0.50920  -0.49170
 Alpha  occ. eigenvalues --   -0.47144  -0.46399  -0.46034  -0.45423  -0.44828
 Alpha  occ. eigenvalues --   -0.43231  -0.42542  -0.40492  -0.39495  -0.38879
 Alpha  occ. eigenvalues --   -0.37993  -0.37340  -0.35704  -0.34562  -0.33229
 Alpha  occ. eigenvalues --   -0.32185
 Alpha virt. eigenvalues --    0.00348   0.01320   0.01354   0.01539   0.02737
 Alpha virt. eigenvalues --    0.02943   0.03153   0.03767   0.04052   0.05045
 Alpha virt. eigenvalues --    0.05167   0.05313   0.05797   0.06440   0.07749

 Mulliken charges:
               1
     1  C   -0.376370
     2  C   -0.051206
     3  C    0.056000
     4  C   -0.399902
     5  C   -0.232396
     6  O   -0.364204
     7  C   -0.317327
     8  C   -0.124174
     9  C   -0.404146
    10  C   -0.301111
    11  O   -0.329297
    12  O   -0.317311
    13  C   -0.372277
    14  H    0.201195
    15  H    0.209895
    16  H    0.266593
    17  H    0.252118
    18  H    0.169887
    19  H    0.179943
    20  H    0.209143
    21  H    0.160320
    22  H    0.174009
    23  H    0.190021
    24  H    0.217686
    25  H    0.141853
    26  H    0.198388
    27  H    0.187782
    28  H    0.182829
    29  H    0.163503
    30  H    0.199062
    31  H    0.229496
 Sum of Mulliken charges =  -0.00000

 Dipole moment (field-independent basis, Debye):
    X=              0.2693    Y=              1.1106    Z=              1.6800  Tot=              2.0318
 Quadrupole moment (field-independent basis, Debye-Ang):
   XX=            -70.9240   YY=            -80.8547   ZZ=            -79.7631
   XY=             -8.2065   XZ=             -5.9546   YZ=             -7.1124

  Exact polarizability: 180.619  -2.804 170.337   1.304  -3.337 171.675
 Approx polarizability: 144.706  -1.339 142.058   0.976  -1.074 142.941

 ******    1 imaginary frequencies (negative Signs) ******

                      1                      2                      3
                      A                      A                      A
 Frequencies --     -3.7451                63.3372                96.7487
 Red. masses --      3.7708                 3.4666                 3.9670
 Frc consts  --      0.0000                 0.0082                 0.0219
 IR Inten    --      1.0177                 3.5802                 3.4258

                      4                      5                      6
                      A                      A                      A
 Frequencies --    144.2859               179.2614               242.5144
 Red. masses --      3.5005                 3.1278                 3.0410
 Frc consts  --      0.0429                 0.0592                 0.1054
 IR Inten    --      1.5695                 0.3336                21.5938

                      7                      8                      9
                      A                      A                      A
 Frequencies --    265.0855               282.0292               350.1653
 Red. masses --      3.1983                 2.0909                 2.2466
 Frc consts  --      0.1324                 0.0980                 0.1623
 IR Inten    --      1.3832                 5.4926                 7.6515

                     10                     11                     12
                      A                      A                      A
 Frequencies --    387.8230               404.8184               433.2081
 Red. masses --      1.9706                 2.4743                 3.0679
 Frc consts  --      0.1746                 0.2389                 0.3392
 IR Inten    --      4.2833                 6.6870                17.9993

                     13                     14                     15
                      A                      A                      A
 Frequencies --    443.5122               502.2460               523.2482
 Red. masses --      2.4640                 3.2023                 2.4329
 Frc consts  --      0.2856                 0.4759                 0.3924
 IR Inten    --      1.0188                 7.4239                 8.7055

                     16                     17                     18
                      A                      A                      A
 Frequencies --    542.5781               589.5819               676.0610
 Red. masses --      2.5559                 2.9345                 2.5648
 Frc consts  --      0.4433                 0.6010                 0.6907
 IR Inten    --      7.4968                 3.7663                 6.5216

                     19                     20                     21
                      A                      A                      A
 Frequencies --    751.7913               833.1642               842.0359
 Red. masses --      2.6097                 1.6151                 3.6430
 Frc consts  --      0.8690                 0.6606                 1.5219
 IR Inten    --      3.8254                 3.0691                13.0329

                     22                     23                     24
                      A                      A                      A
 Frequencies --    847.4985               867.8918               877.6248
 Red. masses --      2.9948                 2.1250                 1.5969
 Frc consts  --      1.2674                 0.9431                 0.7247
 IR Inten    --      2.3926                 6.2137                10.1717

                     25                     26                     27
                      A                      A                      A
 Frequencies --    903.9291               908.5087               914.2088
 Red. masses --      2.3211                 2.4260                 2.3733
 Frc consts  --      1.1174                 1.1798                 1.1687
 IR Inten    --     10.0791                24.8569                65.7253

                     28                     29                     30
                      A                      A                      A
 Frequencies --    932.6717               947.1360              1009.6749
 Red. masses --      1.9832                 1.5896                 1.8574
 Frc consts  --      1.0164                 0.8402                 1.1156
 IR Inten    --     17.0693                22.3491                56.0501

                     31                     32                     33
                      A                      A                      A
 Frequencies --   1034.5515              1036.8917              1054.1834
 Red. masses --      2.2301                 2.2473                 1.8305
 Frc consts  --      1.4063                 1.4236                 1.1985
 IR Inten    --     23.7506                30.1360                18.6728

                     34                     35                     36
                      A                      A                      A
 Frequencies --   1062.5024              1070.5916              1087.4448
 Red. masses --      1.7060                 1.6780                 2.0073
 Frc consts  --      1.1347                 1.1331                 1.3985
 IR Inten    --     36.1257                11.1217               199.7881

                     37                     38                     39
                      A                      A                      A
 Frequencies --   1094.8414              1144.3672              1167.8426
 Red. masses --      1.7654                 2.8547                 2.3553
 Frc consts  --      1.2468                 2.2026                 1.8926
 IR Inten    --     41.2633               187.8500                28.1224

                     40                     41                     42
                      A                      A                      A
 Frequencies --   1179.1244              1200.4651              1216.2510
 Red. masses --      2.3014                 2.8751                 1.4087
 Frc consts  --      1.8852                 2.4412                 1.2278
 IR Inten    --     56.5557               165.3482                20.8169

                     43                     44                     45
                      A                      A                      A
 Frequencies --   1221.1658              1238.9133              1247.3927
 Red. masses --      1.4396                 1.7275                 2.1463
 Frc consts  --      1.2649                 1.5622                 1.9677
 IR Inten    --     75.0663                31.6946               186.0679

                     46                     47                     48
                      A                      A                      A
 Frequencies --   1286.3100              1294.8245              1320.9686
 Red. masses --      1.2432                 1.1273                 1.1650
 Frc consts  --      1.2119                 1.1135                 1.1978
 IR Inten    --     54.3860                 6.8361                26.5522

                     49                     50                     51
                      A                      A                      A
 Frequencies --   1336.3872              1355.5876              1363.9433
 Red. masses --      1.2186                 1.3688                 1.3909
 Frc consts  --      1.2822                 1.4819                 1.5246
 IR Inten    --     17.7463                 9.4071                 3.4122

                     52                     53                     54
                      A                      A                      A
 Frequencies --   1365.2025              1374.4418              1386.1637
 Red. masses --      1.5696                 1.3653                 1.5194
 Frc consts  --      1.7236                 1.5196                 1.7201
 IR Inten    --      8.1699                26.0789                 3.6136

                     55                     56                     57
                      A                      A                      A
 Frequencies --   1390.7472              1397.7583              1406.2729
 Red. masses --      1.5042                 1.5455                 1.4438
 Frc consts  --      1.7142                 1.7790                 1.6822
 IR Inten    --      9.6311                27.6296                 2.5638

                     58                     59                     60
                      A                      A                      A
 Frequencies --   1410.1896              1421.0383              1430.1169
 Red. masses --      1.3486                 1.3728                 1.4077
 Frc consts  --      1.5801                 1.6333                 1.6963
 IR Inten    --      6.1109                 4.1984                12.5461

                     61                     62                     63
                      A                      A                      A
 Frequencies --   1442.5858              1469.8940              1470.3071
 Red. masses --      1.4423                 1.0954                 1.1086
 Frc consts  --      1.7685                 1.3944                 1.4120
 IR Inten    --     24.2007                 4.7821                 8.6104

                     64                     65                     66
                      A                      A                      A
 Frequencies --   1472.7656              1485.3048              1489.7108
 Red. masses --      1.0862                 1.0978                 1.0970
 Frc consts  --      1.3881                 1.4270                 1.4344
 IR Inten    --      9.5259                12.9327                 3.6186

                     67                     68                     69
                      A                      A                      A
 Frequencies --   1491.2949              1504.4005              1506.9202
 Red. masses --      1.1220                 1.0980                 1.0957
 Frc consts  --      1.4702                 1.4641                 1.4660
 IR Inten    --     28.1710                 6.4805                 6.7480

                     70                     71                     72
                      A                      A                      A
 Frequencies --   3028.4034              3048.0355              3056.7085
 Red. masses --      1.0702                 1.0673                 1.0695
 Frc consts  --      5.7828                 5.8423                 5.8875
 IR Inten    --     76.3396                55.3272                49.0696

                     73                     74                     75
                      A                      A                      A
 Frequencies --   3066.2745              3072.8233              3073.3708
 Red. masses --      1.0637                 1.0673                 1.0630
 Frc consts  --      5.8922                 5.9375                 5.9159
 IR Inten    --     42.0942                13.5510                41.3837

                     76                     77                     78
                      A                      A                      A
 Frequencies --   3076.3212              3081.1855              3088.6709
 Red. masses --      1.0628                 1.0630                 1.0831
 Frc consts  --      5.9263                 5.9462                 6.0878
 IR Inten    --     31.1291                17.9103                86.8922

                     79                     80                     81
                      A                      A                      A
 Frequencies --   3104.6518              3117.4627              3121.6739
 Red. masses --      1.0870                 1.0975                 1.1027
 Frc consts  --      6.1733                 6.2844                 6.3309
 IR Inten    --     50.1349                33.0197                65.6395

                     82                     83                     84
                      A                      A                      A
 Frequencies --   3123.0287              3128.6371              3131.4705
 Red. masses --      1.0999                 1.0983                 1.1039
 Frc consts  --      6.3207                 6.3341                 6.3781
 IR Inten    --     51.1102                47.0566                50.7052

                     85                     86                     87
                      A                      A                      A
 Frequencies --   3135.4728              3137.6399              3141.9593
 Red. masses --      1.0975                 1.0963                 1.0982
 Frc consts  --      6.3573                 6.3591                 6.3875
 IR Inten    --     39.0291                41.4504                41.1628

 - Thermochemistry -
 -------------------
 Temperature   298.150 Kelvin.  Pressure   1.00000 Atm.
 Atom     1 has atomic number  6 and mass  12.00000

 Molecular mass:   186.12559 amu.
 Principal axes and moments of inertia in atomic units:
                           1         2         3
     Eigenvalues --  1033.270973956.095293997.12390
           X            0.99983  -0.01819   0.00208
           Y            0.01561   0.78786  -0.61565
           Z            0.00956   0.61558   0.78802
 This molecule is an asymmetric top.
 Rotational symmetry number  1.
 Warning -- assumption of classical behavior for rotation
           may cause significant error
 Rotational temperatures (Kelvin)      0.08382     0.02189     0.02167
 Rotational constants (GHZ):           1.74663     0.45619     0.45151
    1 imaginary frequencies ignored.
 Zero-point vibrational energy     738252.0 (Joules/Mol)
                                  176.44646 (Kcal/Mol)
 Warning -- explicit consideration of  16 degrees of freedom as
           vibrations may cause significant error
 Vibrational temperatures:     91.13   139.20   207.60   257.92   348.92
          (Kelvin)            381.40   405.78   503.81   557.99   582.44
                              623.29   638.12   722.62   752.84   780.65
                              848.28   972.70  1081.66  1198.74  1211.50
                             1219.36  1248.70  1262.71  1300.55  1307.14
                             1315.34  1341.91  1362.72  1452.70  1488.49
                             1491.86  1516.73  1528.70  1540.34  1564.59
                             1575.23  1646.49  1680.26  1696.50  1727.20
                             1749.91  1756.99  1782.52  1794.72  1850.71
                             1862.96  1900.58  1922.76  1950.39  1962.41
                             1964.22  1977.52  1994.38  2000.98  2011.06
                             2023.31  2028.95  2044.56  2057.62  2075.56
                             2114.85  2115.44  2118.98  2137.02  2143.36
                             2145.64  2164.50  2168.12  4357.20  4385.44
                             4397.92  4411.69  4421.11  4421.90  4426.14
                             4433.14  4443.91  4466.90  4485.33  4491.39
                             4493.34  4501.41  4505.49  4511.25  4514.36
                             4520.58

 Zero-point correction=                           0.281185 (Hartree/Particle)
 Thermal correction to Energy=                    0.291880
 Thermal correction to Enthalpy=                  0.292825
 Thermal correction to Gibbs Free Energy=         0.244781
 Sum of electronic and zero-point Energies=           -617.228027
 Sum of electronic and thermal Energies=              -617.217332
 Sum of electronic and thermal Enthalpies=            -617.216387
 Sum of electronic and thermal Free Energies=         -617.264431

                     E (Thermal)             CV                S
                      KCal/Mol        Cal/Mol-Kelvin    Cal/Mol-Kelvin
 Total                  183.158             44.342            101.117
 Electronic               0.000              0.000              0.000
 Translational            0.889              2.981             41.570
 Rotational               0.889              2.981             31.169
 Vibrational            181.380             38.381             28.377
 Vibration     1          0.597              1.972              4.350
 Vibration     2          0.603              1.951              3.519
 Vibration     3          0.616              1.909              2.746
 Vibration     4          0.629              1.868              2.336
 Vibration     5          0.659              1.775              1.784
 Vibration     6          0.671              1.737              1.628
 Vibration     7          0.681              1.707              1.521
 Vibration     8          0.727              1.575              1.165
 Vibration     9          0.756              1.496              1.009
 Vibration    10          0.770              1.460              0.945
 Vibration    11          0.794              1.398              0.848
 Vibration    12          0.803              1.375              0.816
 Vibration    13          0.858              1.245              0.653
 Vibration    14          0.878              1.199              0.602
 Vibration    15          0.898              1.156              0.560
 Vibration    16          0.947              1.054              0.468

                           ! Non-Optimized Parameters !
 Normal termination of Gaussian 16 at Sat Mar  9 05:34:01 2019.
