 Gaussian 16, Revision B.01,
 Gaussian 16:  ES64L-G16RevB.01 20-Dec-2017

 ----------------------------------------------------------------------
 #M062X/6-311++G(2d,2p) opt=ModRedundant freq=noraman SCRF=(SMD,solvent
 =water)
 ----------------------------------------------------------------------

 --------------------------------
 4c1_a1_a4_4c1_PSI.inp_extract_23
 --------------------------------
 Symbolic Z-matrix:
 Charge =  0 Multiplicity = 1

 SCF Done:  E(RM062X) =  -617.507136953     A.U. after   12 cycles
 SCF Done:  E(RM062X) =  -617.508848436     A.U. after   10 cycles
 SCF Done:  E(RM062X) =  -617.509008332     A.U. after    9 cycles
 SCF Done:  E(RM062X) =  -617.509057559     A.U. after    9 cycles
 SCF Done:  E(RM062X) =  -617.509095855     A.U. after    9 cycles
 SCF Done:  E(RM062X) =  -617.509116612     A.U. after    9 cycles
 SCF Done:  E(RM062X) =  -617.509112163     A.U. after    9 cycles
 SCF Done:  E(RM062X) =  -617.509119842     A.U. after    8 cycles
 Optimization completed.
    -- Stationary point found.
 Normal termination of Gaussian 16 at Sat Mar  9 04:11:50 2019.

 ----------------------------------------------------------------------
 #N Geom=AllCheck Guess=TCheck SCRF=Check GenChk RM062X/6-311++G(2d,2p)
  Freq
 ----------------------------------------------------------------------

 Structure from the checkpoint file:  "4c1_a1_a4_4c1_PSI.inp_extract_23.chk"
 --------------------------------
 4c1_a1_a4_4c1_PSI.inp_extract_23
 --------------------------------
 Charge =  0 Multiplicity = 1

                         Standard orientation:
 ---------------------------------------------------------------------
 Center     Atomic      Atomic             Coordinates (Angstroms)
 Number     Number       Type             X           Y           Z
 ---------------------------------------------------------------------
      1          6           0        1.716365   -1.473591    0.029457
      2          6           0       -1.067945    0.824260   -0.483144
      3          6           0        0.980814   -0.388526   -0.733415
      4          6           0       -3.417332   -0.582247    0.401662
      5          6           0        3.436805   -0.013650    0.699368
      6          8           0        2.447716   -0.948722    1.129177
      7          6           0       -2.679538    0.331305    1.378057
      8          6           0       -2.455075   -1.105421   -0.648997
      9          6           0       -1.946709    1.423151    0.600568
     10          6           0        2.799982    1.175296    0.001637
     11          8           0       -1.802671   -0.031547   -1.338056
     12          8           0       -0.017644    0.132321    0.150588
     13          6           0        1.957213    0.697212   -1.179379
     14          1           0        2.397816   -1.989656   -0.655219
     15          1           0        1.008844   -2.193411    0.437542
     16          1           0       -0.670606    1.595940   -1.143507
     17          1           0        0.493718   -0.849045   -1.594863
     18          1           0       -4.214820   -0.024390   -0.095288
     19          1           0       -3.874170   -1.426439    0.918915
     20          1           0        3.979040    0.289036    1.592737
     21          1           0        4.133323   -0.521494    0.021856
     22          1           0       -1.962978   -0.255765    1.956068
     23          1           0       -3.374814    0.781061    2.086072
     24          1           0       -2.972022   -1.673602   -1.419101
     25          1           0       -1.700927   -1.752297   -0.191810
     26          1           0       -2.669904    2.077271    0.110537
     27          1           0       -1.327895    2.038130    1.253301
     28          1           0        3.581607    1.856699   -0.334635
     29          1           0        2.176118    1.715473    0.716202
     30          1           0        1.423339    1.525331   -1.644435
     31          1           0        2.607643    0.264015   -1.942944
 ---------------------------------------------------------------------

 SCF Done:  E(RM062X) =  -617.509119842     A.U. after    1 cycles

 The electronic state is 1-A.
 Alpha  occ. eigenvalues --  -19.63073 -19.62975 -19.62895 -10.63031 -10.58147
 Alpha  occ. eigenvalues --  -10.57538 -10.57298 -10.57251 -10.52498 -10.52434
 Alpha  occ. eigenvalues --  -10.52331 -10.52270 -10.52191  -1.19829  -1.16180
 Alpha  occ. eigenvalues --   -1.12951  -0.90411  -0.89011  -0.86890  -0.84025
 Alpha  occ. eigenvalues --   -0.74201  -0.73366  -0.72114  -0.71006  -0.65770
 Alpha  occ. eigenvalues --   -0.62035  -0.59292  -0.58063  -0.57093  -0.55138
 Alpha  occ. eigenvalues --   -0.53657  -0.52813  -0.51160  -0.51093  -0.49064
 Alpha  occ. eigenvalues --   -0.47372  -0.46391  -0.45885  -0.45378  -0.44650
 Alpha  occ. eigenvalues --   -0.42901  -0.42499  -0.41015  -0.39403  -0.38804
 Alpha  occ. eigenvalues --   -0.37897  -0.37309  -0.35699  -0.34844  -0.33153
 Alpha  occ. eigenvalues --   -0.32010
 Alpha virt. eigenvalues --    0.00347   0.01307   0.01399   0.01493   0.02710
 Alpha virt. eigenvalues --    0.02950   0.03153   0.03734   0.04033   0.05073
 Alpha virt. eigenvalues --    0.05182   0.05261   0.05858   0.06270   0.07623

 Mulliken charges:
               1
     1  C   -0.363733
     2  C   -0.074131
     3  C    0.016882
     4  C   -0.386394
     5  C   -0.237535
     6  O   -0.355013
     7  C   -0.329003
     8  C   -0.123594
     9  C   -0.354667
    10  C   -0.318966
    11  O   -0.353273
    12  O   -0.286378
    13  C   -0.353663
    14  H    0.198225
    15  H    0.221161
    16  H    0.279504
    17  H    0.284290
    18  H    0.171067
    19  H    0.180165
    20  H    0.207550
    21  H    0.160294
    22  H    0.180984
    23  H    0.189138
    24  H    0.217245
    25  H    0.119782
    26  H    0.193004
    27  H    0.181627
    28  H    0.183043
    29  H    0.165469
    30  H    0.169066
    31  H    0.217854
 Sum of Mulliken charges =  -0.00000

 Dipole moment (field-independent basis, Debye):
    X=              0.2155    Y=              0.6845    Z=             -1.8032  Tot=              1.9408
 Quadrupole moment (field-independent basis, Debye-Ang):
   XX=            -70.3559   YY=            -75.0225   ZZ=            -85.5971
   XY=              3.9825   XZ=             -9.1728   YZ=              3.1850

  Exact polarizability: 180.984   3.120 173.340  -0.127   1.767 168.168
 Approx polarizability: 145.238   1.824 142.347   0.339   0.569 141.728

                      1                      2                      3
                      A                      A                      A
 Frequencies --     25.6266                59.9897                80.6548
 Red. masses --      3.6412                 3.5053                 3.9063
 Frc consts  --      0.0014                 0.0074                 0.0150
 IR Inten    --      2.0085                 3.1317                 3.1197

                      4                      5                      6
                      A                      A                      A
 Frequencies --    157.1117               164.0088               244.8147
 Red. masses --      3.4162                 3.3439                 2.7577
 Frc consts  --      0.0497                 0.0530                 0.0974
 IR Inten    --      1.4242                 0.6594                18.5306

                      7                      8                      9
                      A                      A                      A
 Frequencies --    261.6507               282.1279               341.6463
 Red. masses --      3.3748                 2.1741                 2.0917
 Frc consts  --      0.1361                 0.1020                 0.1438
 IR Inten    --      2.0372                 6.8640                 4.8479

                     10                     11                     12
                      A                      A                      A
 Frequencies --    390.6906               411.1037               433.0064
 Red. masses --      1.9912                 2.6693                 2.9984
 Frc consts  --      0.1791                 0.2658                 0.3312
 IR Inten    --      6.9172                 2.9524                19.7305

                     13                     14                     15
                      A                      A                      A
 Frequencies --    443.3963               511.0508               522.6113
 Red. masses --      2.3777                 3.2790                 2.4665
 Frc consts  --      0.2754                 0.5046                 0.3969
 IR Inten    --      1.5715                10.2313                 6.5695

                     16                     17                     18
                      A                      A                      A
 Frequencies --    536.8362               577.8676               671.4934
 Red. masses --      2.5818                 3.0223                 2.5042
 Frc consts  --      0.4384                 0.5946                 0.6653
 IR Inten    --      7.5188                 9.1095                 6.5265

                     19                     20                     21
                      A                      A                      A
 Frequencies --    751.8249               833.0362               842.2771
 Red. masses --      2.5702                 1.6010                 3.1470
 Frc consts  --      0.8560                 0.6546                 1.3154
 IR Inten    --      1.2659                 2.3428                12.8470

                     22                     23                     24
                      A                      A                      A
 Frequencies --    849.7052               869.6618               878.1926
 Red. masses --      3.3627                 1.9231                 1.7553
 Frc consts  --      1.4305                 0.8570                 0.7976
 IR Inten    --      1.4188                 8.2633                10.2909

                     25                     26                     27
                      A                      A                      A
 Frequencies --    902.2865               908.6694               911.7439
 Red. masses --      2.3476                 2.4438                 2.4038
 Frc consts  --      1.1260                 1.1888                 1.1773
 IR Inten    --     12.2486                10.2885                91.2420

                     28                     29                     30
                      A                      A                      A
 Frequencies --    934.1592               948.1836              1014.1480
 Red. masses --      1.9289                 1.5836                 1.7842
 Frc consts  --      0.9917                 0.8389                 1.0812
 IR Inten    --      8.3487                18.3057                44.7569

                     31                     32                     33
                      A                      A                      A
 Frequencies --   1034.8771              1038.7938              1056.1305
 Red. masses --      2.2286                 2.1973                 1.9108
 Frc consts  --      1.4062                 1.3970                 1.2557
 IR Inten    --     14.5906                24.5679                29.3289

                     34                     35                     36
                      A                      A                      A
 Frequencies --   1062.6026              1069.4462              1084.9445
 Red. masses --      1.9379                 1.5206                 2.3306
 Frc consts  --      1.2892                 1.0247                 1.6164
 IR Inten    --     23.2973                25.0718               287.9921

                     37                     38                     39
                      A                      A                      A
 Frequencies --   1096.0525              1143.0094              1164.9114
 Red. masses --      1.6888                 2.7980                 2.3778
 Frc consts  --      1.1953                 2.1538                 1.9011
 IR Inten    --     35.8548               228.1823                30.0837

                     40                     41                     42
                      A                      A                      A
 Frequencies --   1179.2717              1192.6801              1214.1653
 Red. masses --      2.3459                 3.5166                 1.4916
 Frc consts  --      1.9221                 2.9473                 1.2955
 IR Inten    --     29.5623               196.8550                22.1560

                     43                     44                     45
                      A                      A                      A
 Frequencies --   1222.9843              1239.9599              1242.4857
 Red. masses --      1.3349                 1.7731                 1.8479
 Frc consts  --      1.1764                 1.6062                 1.6808
 IR Inten    --     30.7439                 6.1283               179.4331

                     46                     47                     48
                      A                      A                      A
 Frequencies --   1283.9228              1298.7034              1315.3726
 Red. masses --      1.2227                 1.1347                 1.1516
 Frc consts  --      1.1875                 1.1276                 1.1740
 IR Inten    --     44.8944                 3.9624                18.2854

                     49                     50                     51
                      A                      A                      A
 Frequencies --   1337.8800              1355.2822              1362.2207
 Red. masses --      1.2228                 1.3391                 1.4161
 Frc consts  --      1.2896                 1.4492                 1.5483
 IR Inten    --     17.1333                16.3702                 7.0195

                     52                     53                     54
                      A                      A                      A
 Frequencies --   1367.1796              1381.0265              1387.0203
 Red. masses --      1.5463                 1.3800                 1.4912
 Frc consts  --      1.7029                 1.5507                 1.6903
 IR Inten    --      4.9911                24.5136                10.9036

                     55                     56                     57
                      A                      A                      A
 Frequencies --   1391.2888              1397.5880              1402.8118
 Red. masses --      1.5639                 1.5469                 1.3445
 Frc consts  --      1.7836                 1.7802                 1.5588
 IR Inten    --      7.2070                22.4220                 2.1259

                     58                     59                     60
                      A                      A                      A
 Frequencies --   1410.6092              1424.0284              1433.6586
 Red. masses --      1.4243                 1.4079                 1.4709
 Frc consts  --      1.6698                 1.6821                 1.7813
 IR Inten    --      6.9189                15.7245                 4.1483

                     61                     62                     63
                      A                      A                      A
 Frequencies --   1439.2398              1471.3726              1472.5971
 Red. masses --      1.3338                 1.1096                 1.0921
 Frc consts  --      1.6278                 1.4153                 1.3953
 IR Inten    --     26.8240                 5.2415                 5.5147

                     64                     65                     66
                      A                      A                      A
 Frequencies --   1473.5817              1484.9570              1489.1717
 Red. masses --      1.0866                 1.1114                 1.0899
 Frc consts  --      1.3902                 1.4439                 1.4241
 IR Inten    --     11.5823                19.9570                 4.2592

                     67                     68                     69
                      A                      A                      A
 Frequencies --   1490.3315              1504.5707              1504.7548
 Red. masses --      1.1193                 1.0982                 1.0947
 Frc consts  --      1.4647                 1.4647                 1.4604
 IR Inten    --     16.5617                 6.0665                 5.1066

                     70                     71                     72
                      A                      A                      A
 Frequencies --   3030.9093              3047.6027              3057.6748
 Red. masses --      1.0698                 1.0671                 1.0694
 Frc consts  --      5.7901                 5.8394                 5.8909
 IR Inten    --     75.3584                55.3160                44.4860

                     73                     74                     75
                      A                      A                      A
 Frequencies --   3065.3363              3072.6856              3073.0094
 Red. masses --      1.0634                 1.0664                 1.0630
 Frc consts  --      5.8871                 5.9318                 5.9147
 IR Inten    --     48.4557                 4.5799                48.4789

                     76                     77                     78
                      A                      A                      A
 Frequencies --   3076.8698              3080.8410              3092.8887
 Red. masses --      1.0611                 1.0628                 1.0839
 Frc consts  --      5.9188                 5.9435                 6.1090
 IR Inten    --     38.4807                16.9089                57.0913

                     79                     80                     81
                      A                      A                      A
 Frequencies --   3104.1301              3115.9193              3120.1168
 Red. masses --      1.0871                 1.0974                 1.1028
 Frc consts  --      6.1715                 6.2777                 6.3255
 IR Inten    --     54.7736                31.8916                65.0830

                     82                     83                     84
                      A                      A                      A
 Frequencies --   3121.9782              3126.7166              3130.6035
 Red. masses --      1.0989                 1.1009                 1.1043
 Frc consts  --      6.3104                 6.3413                 6.3769
 IR Inten    --     52.5341                52.4879                50.5715

                     85                     86                     87
                      A                      A                      A
 Frequencies --   3135.1264              3136.7350              3138.9751
 Red. masses --      1.0974                 1.0974                 1.0986
 Frc consts  --      6.3549                 6.3615                 6.3780
 IR Inten    --     41.1650                38.1363                42.0007

 - Thermochemistry -
 -------------------
 Temperature   298.150 Kelvin.  Pressure   1.00000 Atm.
 Atom     1 has atomic number  6 and mass  12.00000

 Molecular mass:   186.12559 amu.
 Principal axes and moments of inertia in atomic units:
                           1         2         3
     Eigenvalues --  1064.348373972.653604026.73200
           X            0.99984   0.01162  -0.01371
           Y           -0.00851   0.97804   0.20826
           Z            0.01583  -0.20810   0.97798
 This molecule is an asymmetric top.
 Rotational symmetry number  1.
 Warning -- assumption of classical behavior for rotation
           may cause significant error
 Rotational temperatures (Kelvin)      0.08138     0.02180     0.02151
 Rotational constants (GHZ):           1.69563     0.45429     0.44819
 Zero-point vibrational energy     738150.8 (Joules/Mol)
                                  176.42228 (Kcal/Mol)
 Warning -- explicit consideration of  17 degrees of freedom as
           vibrations may cause significant error
 Vibrational temperatures:     36.87    86.31   116.04   226.05   235.97
          (Kelvin)            352.23   376.46   405.92   491.55   562.12
                              591.49   623.00   637.95   735.29   751.92
                              772.39   831.42   966.13  1081.71  1198.55
                             1211.85  1222.54  1251.25  1263.52  1298.19
                             1307.37  1311.80  1344.05  1364.22  1459.13
                             1488.96  1494.59  1519.54  1528.85  1538.69
                             1560.99  1576.98  1644.54  1676.05  1696.71
                             1716.00  1746.91  1759.60  1784.03  1787.66
                             1847.28  1868.54  1892.53  1924.91  1949.95
                             1959.93  1967.07  1986.99  1995.61  2001.75
                             2010.82  2018.33  2029.55  2048.86  2062.72
                             2070.75  2116.98  2118.74  2120.16  2136.52
                             2142.59  2144.25  2164.74  2165.01  4360.80
                             4384.82  4399.31  4410.34  4420.91  4421.38
                             4426.93  4432.64  4449.98  4466.15  4483.11
                             4489.15  4491.83  4498.65  4504.24  4510.75
                             4513.06  4516.29

 Zero-point correction=                           0.281147 (Hartree/Particle)
 Thermal correction to Energy=                    0.292778
 Thermal correction to Enthalpy=                  0.293723
 Thermal correction to Gibbs Free Energy=         0.242505
 Sum of electronic and zero-point Energies=           -617.227973
 Sum of electronic and thermal Energies=              -617.216341
 Sum of electronic and thermal Enthalpies=            -617.215397
 Sum of electronic and thermal Free Energies=         -617.266615

                     E (Thermal)             CV                S
                      KCal/Mol        Cal/Mol-Kelvin    Cal/Mol-Kelvin
 Total                  183.721             46.370            107.797
 Electronic               0.000              0.000              0.000
 Translational            0.889              2.981             41.570
 Rotational               0.889              2.981             31.210
 Vibrational            181.944             40.408             35.017
 Vibration     1          0.593              1.985              6.142
 Vibration     2          0.597              1.973              4.458
 Vibration     3          0.600              1.962              3.875
 Vibration     4          0.621              1.895              2.584
 Vibration     5          0.623              1.887              2.503
 Vibration     6          0.660              1.771              1.768
 Vibration     7          0.669              1.743              1.651
 Vibration     8          0.681              1.707              1.521
 Vibration     9          0.721              1.592              1.204
 Vibration    10          0.758              1.490              0.998
 Vibration    11          0.775              1.446              0.923
 Vibration    12          0.794              1.398              0.849
 Vibration    13          0.803              1.375              0.816
 Vibration    14          0.866              1.226              0.631
 Vibration    15          0.878              1.200              0.604
 Vibration    16          0.892              1.169              0.572
 Vibration    17          0.934              1.079              0.489

 Optimization completed.
    -- Stationary point found.
 Normal termination of Gaussian 16 at Sat Mar  9 05:18:02 2019.
