 Gaussian 16, Revision B.01,
 Gaussian 16:  ES64L-G16RevB.01 20-Dec-2017

 ----------------------------------------------------------------------
 #M062X/6-311++G(2d,2p) opt=ModRedundant freq=noraman SCRF=(SMD,solvent
 =water)
 ----------------------------------------------------------------------

 --------------------------------
 4c1_a1_a4_4c1_PSI.inp_extract_14
 --------------------------------
 Symbolic Z-matrix:
 Charge =  0 Multiplicity = 1

 SCF Done:  E(RM062X) =  -617.500051564     A.U. after   13 cycles
 SCF Done:  E(RM062X) =  -617.500351270     A.U. after   12 cycles
 SCF Done:  E(RM062X) =  -617.501970708     A.U. after   11 cycles
 SCF Done:  E(RM062X) =  -617.502324348     A.U. after   11 cycles
 SCF Done:  E(RM062X) =  -617.502478136     A.U. after    9 cycles
 SCF Done:  E(RM062X) =  -617.502487087     A.U. after    9 cycles
 SCF Done:  E(RM062X) =  -617.502487902     A.U. after    7 cycles
 SCF Done:  E(RM062X) =  -617.502488010     A.U. after    7 cycles
 Optimization completed.
    -- Stationary point found.
 Normal termination of Gaussian 16 at Sat Mar  9 02:09:39 2019.

 ----------------------------------------------------------------------
 #N Geom=AllCheck Guess=TCheck SCRF=Check GenChk RM062X/6-311++G(2d,2p)
  Freq
 ----------------------------------------------------------------------

 Structure from the checkpoint file:  "4c1_a1_a4_4c1_PSI.inp_extract_14.chk"
 --------------------------------
 4c1_a1_a4_4c1_PSI.inp_extract_14
 --------------------------------
 Charge =  0 Multiplicity = 1

                         Standard orientation:
 ---------------------------------------------------------------------
 Center     Atomic      Atomic             Coordinates (Angstroms)
 Number     Number       Type             X           Y           Z
 ---------------------------------------------------------------------
      1          6           0       -2.115560   -1.296750    0.581018
      2          6           0        0.679363   -0.354435   -0.453383
      3          6           0       -1.131268   -0.312124    1.199908
      4          6           0        3.401387    0.520040   -0.060537
      5          6           0       -3.064867    0.289004   -0.870956
      6          8           0       -2.460007   -0.998484   -0.765612
      7          6           0        3.053867   -0.956047    0.118380
      8          6           0        2.179183    1.374610    0.221538
      9          6           0        1.837809   -1.296030   -0.741104
     10          6           0       -2.086580    1.379476   -0.473321
     11          8           0        1.073268    0.998270   -0.606345
     12          8           0        0.228298   -0.610310    0.857412
     13          6           0       -1.572047    1.132882    0.946589
     14          1           0       -3.026036   -1.296500    1.191420
     15          1           0       -1.691294   -2.299471    0.584377
     16          1           0       -0.127528   -0.498847   -1.168267
     17          1           0       -1.150469   -0.490836    2.274903
     18          1           0        3.732077    0.699415   -1.086545
     19          1           0        4.209039    0.821006    0.607385
     20          1           0       -3.382607    0.395475   -1.906063
     21          1           0       -3.952792    0.316543   -0.228235
     22          1           0        2.832824   -1.154135    1.169445
     23          1           0        3.896186   -1.588813   -0.159356
     24          1           0        2.363956    2.423805    0.001085
     25          1           0        1.890026    1.291291    1.272562
     26          1           0        2.093153   -1.186271   -1.796813
     27          1           0        1.502993   -2.320550   -0.582317
     28          1           0       -2.590225    2.345490   -0.522448
     29          1           0       -1.266912    1.403622   -1.190660
     30          1           0       -0.760700    1.812974    1.204308
     31          1           0       -2.391889    1.326241    1.642788
 ---------------------------------------------------------------------

 SCF Done:  E(RM062X) =  -617.502488010     A.U. after    1 cycles

 The electronic state is 1-A.
 Alpha  occ. eigenvalues --  -19.62869 -19.62839 -19.62687 -10.62791 -10.58459
 Alpha  occ. eigenvalues --  -10.57506 -10.57274 -10.57139 -10.52626 -10.52314
 Alpha  occ. eigenvalues --  -10.52275 -10.52138 -10.52130  -1.19335  -1.16101
 Alpha  occ. eigenvalues --   -1.12827  -0.90262  -0.88820  -0.86797  -0.84086
 Alpha  occ. eigenvalues --   -0.74356  -0.73606  -0.72479  -0.70459  -0.65929
 Alpha  occ. eigenvalues --   -0.62060  -0.58950  -0.57991  -0.56398  -0.54546
 Alpha  occ. eigenvalues --   -0.54200  -0.52218  -0.51563  -0.50392  -0.49543
 Alpha  occ. eigenvalues --   -0.48176  -0.45954  -0.45543  -0.45033  -0.44772
 Alpha  occ. eigenvalues --   -0.43186  -0.42212  -0.40417  -0.39559  -0.38893
 Alpha  occ. eigenvalues --   -0.37618  -0.37084  -0.36462  -0.34675  -0.32873
 Alpha  occ. eigenvalues --   -0.31179
 Alpha virt. eigenvalues --    0.00296   0.01203   0.01382   0.01615   0.02772
 Alpha virt. eigenvalues --    0.03039   0.03125   0.03667   0.03910   0.05179
 Alpha virt. eigenvalues --    0.05253   0.05530   0.06007   0.06157   0.07714

 Mulliken charges:
               1
     1  C   -0.359285
     2  C   -0.067463
     3  C    0.233613
     4  C   -0.422113
     5  C   -0.316253
     6  O   -0.349007
     7  C   -0.277431
     8  C   -0.096891
     9  C   -0.652055
    10  C   -0.124484
    11  O   -0.276371
    12  O   -0.358633
    13  C   -0.604272
    14  H    0.192245
    15  H    0.212719
    16  H    0.320800
    17  H    0.260041
    18  H    0.163744
    19  H    0.183432
    20  H    0.204890
    21  H    0.165484
    22  H    0.178791
    23  H    0.193180
    24  H    0.211995
    25  H    0.151366
    26  H    0.200560
    27  H    0.183798
    28  H    0.216975
    29  H    0.212147
    30  H    0.159371
    31  H    0.259107
 Sum of Mulliken charges =   0.00000

 Dipole moment (field-independent basis, Debye):
    X=             -0.3729    Y=              0.9754    Z=              1.7580  Tot=              2.0448
 Quadrupole moment (field-independent basis, Debye-Ang):
   XX=            -70.0924   YY=            -80.1811   ZZ=            -79.9216
   XY=             -3.6384   XZ=             -4.3444   YZ=              0.2257

  Exact polarizability: 179.095   0.502 173.171  -0.154  -1.207 169.824
 Approx polarizability: 144.017   0.007 142.208  -0.258  -1.243 143.510

                      1                      2                      3
                      A                      A                      A
 Frequencies --     56.2347                64.3988               103.6767
 Red. masses --      3.9854                 3.5840                 3.4697
 Frc consts  --      0.0074                 0.0088                 0.0220
 IR Inten    --      1.8385                 4.5785                 4.1575

                      4                      5                      6
                      A                      A                      A
 Frequencies --    130.4304               195.4396               218.6615
 Red. masses --      4.1880                 3.0688                 2.9493
 Frc consts  --      0.0420                 0.0691                 0.0831
 IR Inten    --      3.0274                 4.2183                 5.0293

                      7                      8                      9
                      A                      A                      A
 Frequencies --    250.7312               303.7033               350.0741
 Red. masses --      2.8172                 2.0849                 2.6125
 Frc consts  --      0.1043                 0.1133                 0.1886
 IR Inten    --      1.9265                 4.0736                 7.1209

                     10                     11                     12
                      A                      A                      A
 Frequencies --    363.8648               411.7105               435.7228
 Red. masses --      2.2382                 2.1394                 2.6496
 Frc consts  --      0.1746                 0.2137                 0.2964
 IR Inten    --      0.7450                10.3660                26.3676

                     13                     14                     15
                      A                      A                      A
 Frequencies --    438.8443               476.2262               522.4819
 Red. masses --      3.0034                 3.9237                 2.3941
 Frc consts  --      0.3408                 0.5243                 0.3851
 IR Inten    --      3.8932                 8.6753                 4.0012

                     16                     17                     18
                      A                      A                      A
 Frequencies --    535.6602               587.5558               674.1820
 Red. masses --      1.8929                 3.6722                 2.8251
 Frc consts  --      0.3200                 0.7469                 0.7565
 IR Inten    --      2.2700                32.5333                 4.0968

                     19                     20                     21
                      A                      A                      A
 Frequencies --    756.1061               795.6612               837.4018
 Red. masses --      2.3111                 3.0911                 1.5395
 Frc consts  --      0.7785                 1.1530                 0.6361
 IR Inten    --      5.5154                 2.7933                 1.5319

                     22                     23                     24
                      A                      A                      A
 Frequencies --    846.5918               858.1088               876.4869
 Red. masses --      3.3324                 1.7419                 2.5963
 Frc consts  --      1.4072                 0.7557                 1.1751
 IR Inten    --      6.9068                15.6790                21.5658

                     25                     26                     27
                      A                      A                      A
 Frequencies --    897.0181               904.3907               912.4092
 Red. masses --      2.3655                 2.6085                 2.3322
 Frc consts  --      1.1214                 1.2570                 1.1439
 IR Inten    --     27.3907                63.5298                20.9550

                     28                     29                     30
                      A                      A                      A
 Frequencies --    929.9285               968.4302               989.5203
 Red. masses --      1.7091                 1.7357                 2.0487
 Frc consts  --      0.8708                 0.9591                 1.1819
 IR Inten    --     13.3438                 8.2749                55.6002

                     31                     32                     33
                      A                      A                      A
 Frequencies --   1035.7101              1038.8449              1059.6857
 Red. masses --      2.0651                 2.1168                 1.7724
 Frc consts  --      1.3052                 1.3459                 1.1727
 IR Inten    --     31.5660                 5.7751                26.0738

                     34                     35                     36
                      A                      A                      A
 Frequencies --   1063.4797              1065.1453              1081.8417
 Red. masses --      1.4595                 2.1950                 2.3808
 Frc consts  --      0.9725                 1.4672                 1.6417
 IR Inten    --     40.8142                35.6984               257.8717

                     37                     38                     39
                      A                      A                      A
 Frequencies --   1099.6134              1151.2038              1158.2334
 Red. masses --      1.6453                 2.8991                 3.0339
 Frc consts  --      1.1721                 2.2637                 2.3980
 IR Inten    --     67.4306               115.0562               162.9826

                     40                     41                     42
                      A                      A                      A
 Frequencies --   1165.7052              1200.9838              1207.4490
 Red. masses --      2.2933                 2.4706                 1.5550
 Frc consts  --      1.8360                 2.0996                 1.3357
 IR Inten    --     15.8271               113.4508                62.4282

                     43                     44                     45
                      A                      A                      A
 Frequencies --   1227.2857              1233.7835              1241.2830
 Red. masses --      1.4331                 1.6790                 1.7622
 Frc consts  --      1.2718                 1.5058                 1.5997
 IR Inten    --     94.6321                39.6623                62.4274

                     46                     47                     48
                      A                      A                      A
 Frequencies --   1280.5191              1314.8810              1317.8936
 Red. masses --      1.2211                 1.1447                 1.1839
 Frc consts  --      1.1797                 1.1661                 1.2115
 IR Inten    --     22.5293                11.6373                32.4597

                     49                     50                     51
                      A                      A                      A
 Frequencies --   1343.9142              1356.1980              1358.1346
 Red. masses --      1.3490                 1.4880                 1.3598
 Frc consts  --      1.4355                 1.6125                 1.4778
 IR Inten    --     40.8617                 2.7600                 2.3922

                     52                     53                     54
                      A                      A                      A
 Frequencies --   1370.1466              1382.9689              1387.2726
 Red. masses --      1.3523                 1.5112                 1.5948
 Frc consts  --      1.4957                 1.7029                 1.8083
 IR Inten    --     11.5006                 2.7598                13.7673

                     55                     56                     57
                      A                      A                      A
 Frequencies --   1389.4624              1399.3991              1406.6519
 Red. masses --      1.5647                 1.2692                 1.3488
 Frc consts  --      1.7798                 1.4644                 1.5725
 IR Inten    --      9.8257                10.2302                 4.7124

                     58                     59                     60
                      A                      A                      A
 Frequencies --   1416.0804              1428.6364              1433.0353
 Red. masses --      1.3960                 1.2729                 1.3502
 Frc consts  --      1.6494                 1.5307                 1.6337
 IR Inten    --     25.4386                 8.8404                 6.8315

                     61                     62                     63
                      A                      A                      A
 Frequencies --   1438.6117              1467.6841              1470.6262
 Red. masses --      1.3434                 1.1045                 1.1091
 Frc consts  --      1.6381                 1.4018                 1.4133
 IR Inten    --     43.2479                12.2804                 5.9109

                     64                     65                     66
                      A                      A                      A
 Frequencies --   1474.0732              1485.3760              1490.6881
 Red. masses --      1.0886                 1.0878                 1.1008
 Frc consts  --      1.3937                 1.4141                 1.4412
 IR Inten    --      8.6760                 5.2688                 5.0309

                     67                     68                     69
                      A                      A                      A
 Frequencies --   1492.8577              1505.7603              1506.8164
 Red. masses --      1.1135                 1.1001                 1.0931
 Frc consts  --      1.4620                 1.4696                 1.4623
 IR Inten    --     25.6880                 6.2450                 3.7313

                     70                     71                     72
                      A                      A                      A
 Frequencies --   3029.3890              3035.9031              3059.9080
 Red. masses --      1.0699                 1.0685                 1.0691
 Frc consts  --      5.7852                 5.8022                 5.8980
 IR Inten    --     77.9997                63.8654                39.9731

                     73                     74                     75
                      A                      A                      A
 Frequencies --   3066.1524              3067.6140              3071.8928
 Red. masses --      1.0632                 1.0663                 1.0630
 Frc consts  --      5.8893                 5.9120                 5.9103
 IR Inten    --     58.3991                18.3884                41.0528

                     76                     77                     78
                      A                      A                      A
 Frequencies --   3079.7067              3089.9330              3103.6015
 Red. masses --      1.0625                 1.0623                 1.0858
 Frc consts  --      5.9376                 5.9757                 6.1622
 IR Inten    --     31.4933                31.1771                52.5890

                     79                     80                     81
                      A                      A                      A
 Frequencies --   3115.8336              3120.1322              3122.6164
 Red. masses --      1.0974                 1.1026                 1.0982
 Frc consts  --      6.2774                 6.3244                 6.3092
 IR Inten    --     42.9892                70.5633                26.5429

                     82                     83                     84
                      A                      A                      A
 Frequencies --   3130.4875              3131.8664              3133.9697
 Red. masses --      1.1034                 1.0970                 1.0970
 Frc consts  --      6.3710                 6.3394                 6.3481
 IR Inten    --     50.2815                54.3075                16.4431

                     85                     86                     87
                      A                      A                      A
 Frequencies --   3138.0320              3138.8889              3145.7782
 Red. masses --      1.0979                 1.0997                 1.0890
 Frc consts  --      6.3695                 6.3835                 6.3494
 IR Inten    --     52.6389                26.2498                35.9640

 - Thermochemistry -
 -------------------
 Temperature   298.150 Kelvin.  Pressure   1.00000 Atm.
 Atom     1 has atomic number  6 and mass  12.00000

 Molecular mass:   186.12559 amu.
 Principal axes and moments of inertia in atomic units:
                           1         2         3
     Eigenvalues --  1084.370303453.792283774.85582
           X            0.99993  -0.01148  -0.00368
           Y            0.01152   0.99987   0.01134
           Z            0.00355  -0.01138   0.99993
 This molecule is an asymmetric top.
 Rotational symmetry number  1.
 Warning -- assumption of classical behavior for rotation
           may cause significant error
 Rotational temperatures (Kelvin)      0.07987     0.02508     0.02294
 Rotational constants (GHZ):           1.66432     0.52254     0.47810
 Zero-point vibrational energy     738223.3 (Joules/Mol)
                                  176.43960 (Kcal/Mol)
 Warning -- explicit consideration of  17 degrees of freedom as
           vibrations may cause significant error
 Vibrational temperatures:     80.91    92.66   149.17   187.66   281.19
          (Kelvin)            314.61   360.75   436.96   503.68   523.52
                              592.36   626.91   631.40   685.18   751.73
                              770.70   845.36   970.00  1087.87  1144.78
                             1204.83  1218.06  1234.63  1261.07  1290.61
                             1301.22  1312.75  1337.96  1393.36  1423.70
                             1490.16  1494.67  1524.65  1530.11  1532.51
                             1556.53  1582.10  1656.33  1666.44  1677.19
                             1727.95  1737.25  1765.79  1775.14  1785.93
                             1842.38  1891.82  1896.15  1933.59  1951.27
                             1954.05  1971.34  1989.78  1995.98  1999.13
                             2013.42  2023.86  2037.42  2055.49  2061.82
                             2069.84  2111.67  2115.90  2120.86  2137.12
                             2144.77  2147.89  2166.45  2167.97  4358.62
                             4367.99  4402.53  4411.51  4413.61  4419.77
                             4431.01  4445.72  4465.39  4482.99  4489.17
                             4492.75  4504.07  4506.06  4509.08  4514.93
                             4516.16  4526.07

 Zero-point correction=                           0.281174 (Hartree/Particle)
 Thermal correction to Energy=                    0.292764
 Thermal correction to Enthalpy=                  0.293708
 Thermal correction to Gibbs Free Energy=         0.243442
 Sum of electronic and zero-point Energies=           -617.221314
 Sum of electronic and thermal Energies=              -617.209724
 Sum of electronic and thermal Enthalpies=            -617.208780
 Sum of electronic and thermal Free Energies=         -617.259046

                     E (Thermal)             CV                S
                      KCal/Mol        Cal/Mol-Kelvin    Cal/Mol-Kelvin
 Total                  183.712             46.542            105.794
 Electronic               0.000              0.000              0.000
 Translational            0.889              2.981             41.570
 Rotational               0.889              2.981             31.025
 Vibrational            181.935             40.580             33.199
 Vibration     1          0.596              1.975              4.585
 Vibration     2          0.597              1.971              4.318
 Vibration     3          0.605              1.946              3.384
 Vibration     4          0.612              1.923              2.940
 Vibration     5          0.636              1.846              2.176
 Vibration     6          0.646              1.813              1.970
 Vibration     7          0.663              1.762              1.725
 Vibration     8          0.695              1.667              1.396
 Vibration     9          0.727              1.575              1.166
 Vibration    10          0.737              1.547              1.106
 Vibration    11          0.776              1.445              0.921
 Vibration    12          0.796              1.392              0.840
 Vibration    13          0.799              1.385              0.830
 Vibration    14          0.833              1.303              0.720
 Vibration    15          0.877              1.200              0.604
 Vibration    16          0.891              1.171              0.575
 Vibration    17          0.945              1.058              0.472

 Optimization completed.
    -- Stationary point found.
 Normal termination of Gaussian 16 at Sat Mar  9 03:18:01 2019.
