 Gaussian 16, Revision B.01,
 Gaussian 16:  ES64L-G16RevB.01 20-Dec-2017

 ----------------------------------------------------------------------
 #M062X/6-311++G(2d,2p) opt=ModRedundant freq=noraman SCRF=(SMD,solvent
 =water)
 ----------------------------------------------------------------------

 --------------------------------
 4c1_a1_a4_4c1_PSI.inp_extract_17
 --------------------------------
 Symbolic Z-matrix:
 Charge =  0 Multiplicity = 1

 SCF Done:  E(RM062X) =  -617.497106977     A.U. after   13 cycles
 SCF Done:  E(RM062X) =  -617.497763977     A.U. after   11 cycles
 SCF Done:  E(RM062X) =  -617.498497982     A.U. after   11 cycles
 SCF Done:  E(RM062X) =  -617.498961351     A.U. after   10 cycles
 SCF Done:  E(RM062X) =  -617.499024984     A.U. after   10 cycles
 SCF Done:  E(RM062X) =  -617.499030037     A.U. after    8 cycles
 SCF Done:  E(RM062X) =  -617.499031173     A.U. after    8 cycles
 SCF Done:  E(RM062X) =  -617.499031600     A.U. after    8 cycles
 SCF Done:  E(RM062X) =  -617.499031756     A.U. after    8 cycles
 SCF Done:  E(RM062X) =  -617.499031802     A.U. after    6 cycles
 Optimization completed.
    -- Stationary point found.
 Normal termination of Gaussian 16 at Sat Mar  9 03:01:34 2019.

 ----------------------------------------------------------------------
 #N Geom=AllCheck Guess=TCheck SCRF=Check GenChk RM062X/6-311++G(2d,2p)
  Freq
 ----------------------------------------------------------------------

 Structure from the checkpoint file:  "4c1_a1_a4_4c1_PSI.inp_extract_17.chk"
 --------------------------------
 4c1_a1_a4_4c1_PSI.inp_extract_17
 --------------------------------
 Charge =  0 Multiplicity = 1

                         Standard orientation:
 ---------------------------------------------------------------------
 Center     Atomic      Atomic             Coordinates (Angstroms)
 Number     Number       Type             X           Y           Z
 ---------------------------------------------------------------------
      1          6           0       -2.115003   -0.951419    1.122388
      2          6           0        0.771600   -0.008407   -0.551655
      3          6           0       -1.076014    0.155107    1.093423
      4          6           0        3.585413    0.104103    0.083697
      5          6           0       -3.330335   -0.140773   -0.703848
      6          8           0       -2.610938   -1.253759   -0.173640
      7          6           0        2.902168   -1.254104   -0.056650
      8          6           0        2.570855    1.149121    0.509381
      9          6           0        1.706209   -1.122174   -0.997215
     10          6           0       -2.403495    1.037881   -0.937686
     11          8           0        1.470947    1.218370   -0.405830
     12          8           0        0.176371   -0.404370    0.656502
     13          6           0       -1.612433    1.373320    0.333385
     14          1           0       -2.945213   -0.646329    1.769051
     15          1           0       -1.675301   -1.864333    1.519353
     16          1           0        0.022557    0.188259   -1.311725
     17          1           0       -0.896717    0.459587    2.126121
     18          1           0        4.020216    0.399584   -0.874356
     19          1           0        4.390424    0.068750    0.818356
     20          1           0       -3.785025   -0.477827   -1.632916
     21          1           0       -4.127681    0.127996   -0.001928
     22          1           0        2.567131   -1.597114    0.924600
     23          1           0        3.597628   -2.000048   -0.439947
     24          1           0        3.003607    2.147101    0.520350
     25          1           0        2.193486    0.928051    1.511477
     26          1           0        2.055627   -0.871187   -2.000494
     27          1           0        1.137467   -2.049044   -1.062762
     28          1           0       -2.996510    1.903181   -1.235908
     29          1           0       -1.745287    0.803208   -1.773246
     30          1           0       -0.808889    2.076377    0.124569
     31          1           0       -2.292350    1.865919    1.031829
 ---------------------------------------------------------------------

 SCF Done:  E(RM062X) =  -617.499031802     A.U. after    1 cycles

 The electronic state is 1-A.
 Alpha  occ. eigenvalues --  -19.63013 -19.62818 -19.62708 -10.62958 -10.58533
 Alpha  occ. eigenvalues --  -10.57387 -10.57346 -10.57156 -10.52907 -10.52413
 Alpha  occ. eigenvalues --  -10.52348 -10.52289 -10.52137  -1.19287  -1.16252
 Alpha  occ. eigenvalues --   -1.12720  -0.90271  -0.88903  -0.87103  -0.84056
 Alpha  occ. eigenvalues --   -0.74655  -0.73621  -0.72265  -0.70528  -0.66043
 Alpha  occ. eigenvalues --   -0.61691  -0.59359  -0.58357  -0.56207  -0.54559
 Alpha  occ. eigenvalues --   -0.53520  -0.52955  -0.52659  -0.50606  -0.49240
 Alpha  occ. eigenvalues --   -0.47494  -0.45958  -0.45711  -0.45072  -0.44683
 Alpha  occ. eigenvalues --   -0.43380  -0.42385  -0.40262  -0.39939  -0.38555
 Alpha  occ. eigenvalues --   -0.38148  -0.37215  -0.35387  -0.35195  -0.33037
 Alpha  occ. eigenvalues --   -0.31503
 Alpha virt. eigenvalues --    0.00288   0.01248   0.01342   0.01624   0.02727
 Alpha virt. eigenvalues --    0.02944   0.03102   0.03756   0.03966   0.05059
 Alpha virt. eigenvalues --    0.05191   0.05358   0.05945   0.06153   0.07445

 Mulliken charges:
               1
     1  C   -0.388429
     2  C   -0.125818
     3  C    0.112302
     4  C   -0.423756
     5  C   -0.242998
     6  O   -0.342526
     7  C   -0.313537
     8  C   -0.111899
     9  C   -0.429742
    10  C   -0.284252
    11  O   -0.331386
    12  O   -0.346477
    13  C   -0.408973
    14  H    0.187226
    15  H    0.209134
    16  H    0.364894
    17  H    0.240940
    18  H    0.163735
    19  H    0.181768
    20  H    0.206722
    21  H    0.163982
    22  H    0.179538
    23  H    0.189391
    24  H    0.212348
    25  H    0.156670
    26  H    0.196637
    27  H    0.188268
    28  H    0.177095
    29  H    0.148330
    30  H    0.219246
    31  H    0.251568
 Sum of Mulliken charges =  -0.00000

 Dipole moment (field-independent basis, Debye):
    X=             -0.5769    Y=              1.6360    Z=              0.9342  Tot=              1.9703
 Quadrupole moment (field-independent basis, Debye-Ang):
   XX=            -69.3171   YY=            -84.7032   ZZ=            -75.8494
   XY=             -7.7342   XZ=             -0.8508   YZ=              1.4832

  Exact polarizability: 181.146  -0.447 169.599   1.248  -0.094 171.789
 Approx polarizability: 144.983  -0.670 140.850   0.602  -0.531 143.893

 ******    1 imaginary frequencies (negative Signs) ******

                      1                      2                      3
                      A                      A                      A
 Frequencies --    -69.4530                40.2747               100.5945
 Red. masses --      3.9647                 4.2469                 3.6222
 Frc consts  --      0.0113                 0.0041                 0.0216
 IR Inten    --      2.8784                 5.1763                 6.5699

                      4                      5                      6
                      A                      A                      A
 Frequencies --    117.8638               204.3640               210.9231
 Red. masses --      3.8288                 3.3051                 2.7554
 Frc consts  --      0.0313                 0.0813                 0.0722
 IR Inten    --      1.3239                 1.3676                 7.7352

                      7                      8                      9
                      A                      A                      A
 Frequencies --    250.1841               285.8952               343.7436
 Red. masses --      2.9007                 2.0256                 2.2625
 Frc consts  --      0.1070                 0.0975                 0.1575
 IR Inten    --      0.7407                 2.2879                 0.1423

                     10                     11                     12
                      A                      A                      A
 Frequencies --    368.7949               406.8667               429.4102
 Red. masses --      2.3976                 2.2451                 3.1339
 Frc consts  --      0.1921                 0.2190                 0.3405
 IR Inten    --      4.3743                13.7017                27.9453

                     13                     14                     15
                      A                      A                      A
 Frequencies --    446.8452               484.0822               523.9592
 Red. masses --      2.5248                 3.9951                 2.2961
 Frc consts  --      0.2970                 0.5516                 0.3714
 IR Inten    --      1.0674                 5.7998                 6.9809

                     16                     17                     18
                      A                      A                      A
 Frequencies --    534.9583               591.3056               669.9078
 Red. masses --      1.8655                 3.6946                 2.8663
 Frc consts  --      0.3145                 0.7611                 0.7579
 IR Inten    --      0.2548                20.7618                 5.6222

                     19                     20                     21
                      A                      A                      A
 Frequencies --    750.8972               798.1288               834.3686
 Red. masses --      2.3251                 3.0488                 1.5473
 Frc consts  --      0.7724                 1.1443                 0.6347
 IR Inten    --      8.6915                 6.8790                 0.8208

                     22                     23                     24
                      A                      A                      A
 Frequencies --    841.8174               857.5824               874.7134
 Red. masses --      3.2345                 1.7817                 2.5077
 Frc consts  --      1.3505                 0.7720                 1.1305
 IR Inten    --     22.3303                10.3888                16.8072

                     25                     26                     27
                      A                      A                      A
 Frequencies --    892.9245               902.9042               910.7963
 Red. masses --      2.5706                 2.6951                 2.2855
 Frc consts  --      1.2076                 1.2945                 1.1171
 IR Inten    --     34.6099                52.3587                21.8582

                     28                     29                     30
                      A                      A                      A
 Frequencies --    927.4975               965.4505               982.6717
 Red. masses --      1.7820                 1.7415                 2.0738
 Frc consts  --      0.9032                 0.9564                 1.1798
 IR Inten    --     13.1728                14.4293                46.3732

                     31                     32                     33
                      A                      A                      A
 Frequencies --   1034.7496              1039.8014              1055.9709
 Red. masses --      2.0629                 2.0844                 1.9603
 Frc consts  --      1.3014                 1.3278                 1.2879
 IR Inten    --     47.2360                13.8307               143.7126

                     34                     35                     36
                      A                      A                      A
 Frequencies --   1062.2885              1065.5113              1080.9029
 Red. masses --      1.7708                 1.7613                 2.3186
 Frc consts  --      1.1773                 1.1782                 1.5960
 IR Inten    --     30.0632                31.8310               231.6204

                     37                     38                     39
                      A                      A                      A
 Frequencies --   1099.0311              1147.0210              1157.0554
 Red. masses --      1.5662                 2.7043                 2.7777
 Frc consts  --      1.1146                 2.0963                 2.1910
 IR Inten    --     36.1965               136.5287                25.3554

                     40                     41                     42
                      A                      A                      A
 Frequencies --   1166.2586              1197.3846              1206.3681
 Red. masses --      2.2581                 2.6629                 1.5485
 Frc consts  --      1.8096                 2.2494                 1.3277
 IR Inten    --     73.4458               147.7306                72.6191

                     43                     44                     45
                      A                      A                      A
 Frequencies --   1228.7878              1239.1636              1243.7299
 Red. masses --      1.5965                 1.3922                 1.7952
 Frc consts  --      1.4202                 1.2596                 1.6361
 IR Inten    --     71.9830                83.6543                43.8710

                     46                     47                     48
                      A                      A                      A
 Frequencies --   1281.1670              1313.3996              1317.3554
 Red. masses --      1.2223                 1.1433                 1.1875
 Frc consts  --      1.1820                 1.1620                 1.2142
 IR Inten    --     26.7138                14.0955                34.1896

                     49                     50                     51
                      A                      A                      A
 Frequencies --   1341.7890              1355.5963              1367.5379
 Red. masses --      1.2706                 1.3418                 1.6222
 Frc consts  --      1.3478                 1.4527                 1.7875
 IR Inten    --     38.4598                 3.5591                 7.9103

                     52                     53                     54
                      A                      A                      A
 Frequencies --   1369.7732              1383.1142              1388.2256
 Red. masses --      1.3103                 1.5043                 1.4258
 Frc consts  --      1.4485                 1.6956                 1.6190
 IR Inten    --      6.4959                 0.8383                 8.2237

                     55                     56                     57
                      A                      A                      A
 Frequencies --   1390.0379              1394.7258              1403.4557
 Red. masses --      1.4723                 1.4476                 1.3930
 Frc consts  --      1.6761                 1.6591                 1.6166
 IR Inten    --      7.6276                20.2014                 7.5369

                     58                     59                     60
                      A                      A                      A
 Frequencies --   1410.3358              1417.7514              1429.6628
 Red. masses --      1.4146                 1.3017                 1.3594
 Frc consts  --      1.6578                 1.5415                 1.6371
 IR Inten    --     23.0292                 6.2551                 5.9714

                     61                     62                     63
                      A                      A                      A
 Frequencies --   1431.3764              1465.9601              1469.0838
 Red. masses --      1.3432                 1.0986                 1.1063
 Frc consts  --      1.6214                 1.3910                 1.4068
 IR Inten    --     37.4762                16.7383                 5.9509

                     64                     65                     66
                      A                      A                      A
 Frequencies --   1472.9528              1489.5299              1491.5010
 Red. masses --      1.0887                 1.0840                 1.1091
 Frc consts  --      1.3916                 1.4171                 1.4537
 IR Inten    --      8.7463                 2.9649                12.6808

                     67                     68                     69
                      A                      A                      A
 Frequencies --   1493.7351              1505.0722              1508.0959
 Red. masses --      1.0999                 1.0928                 1.1024
 Frc consts  --      1.4459                 1.4584                 1.4772
 IR Inten    --     12.5649                 3.0126                 7.2860

                     70                     71                     72
                      A                      A                      A
 Frequencies --   3035.6236              3039.9308              3058.6656
 Red. masses --      1.0696                 1.0685                 1.0693
 Frc consts  --      5.8074                 5.8178                 5.8943
 IR Inten    --     64.6717                61.3257                45.8640

                     73                     74                     75
                      A                      A                      A
 Frequencies --   3065.4794              3071.6293              3072.8383
 Red. masses --      1.0636                 1.0631                 1.0748
 Frc consts  --      5.8886                 5.9097                 5.9794
 IR Inten    --     53.3754                44.2148                 4.7800

                     76                     77                     78
                      A                      A                      A
 Frequencies --   3079.9292              3085.3617              3086.8181
 Red. masses --      1.0623                 1.0800                 1.0613
 Frc consts  --      5.9373                 6.0575                 5.9583
 IR Inten    --     34.9967                79.2423                21.7733

                     79                     80                     81
                      A                      A                      A
 Frequencies --   3116.2490              3120.3230              3124.1676
 Red. masses --      1.0973                 1.1025                 1.1010
 Frc consts  --      6.2781                 6.3243                 6.3317
 IR Inten    --     42.6342                69.5269                51.3273

                     82                     83                     84
                      A                      A                      A
 Frequencies --   3130.3059              3137.5555              3138.0642
 Red. masses --      1.1037                 1.0987                 1.0964
 Frc consts  --      6.3723                 6.3726                 6.3612
 IR Inten    --     47.2762                43.2665                45.9346

                     85                     86                     87
                      A                      A                      A
 Frequencies --   3139.9734              3144.8081              3176.3736
 Red. masses --      1.0969                 1.0969                 1.0851
 Frc consts  --      6.3717                 6.3916                 6.4502
 IR Inten    --     31.0528                20.5000                38.4847

 - Thermochemistry -
 -------------------
 Temperature   298.150 Kelvin.  Pressure   1.00000 Atm.
 Atom     1 has atomic number  6 and mass  12.00000

 Molecular mass:   186.12559 amu.
 Principal axes and moments of inertia in atomic units:
                           1         2         3
     Eigenvalues --  1030.933723806.025694075.61659
           X            0.99988  -0.01554   0.00119
           Y            0.01551   0.99969   0.01934
           Z           -0.00149  -0.01932   0.99981
 This molecule is an asymmetric top.
 Rotational symmetry number  1.
 Warning -- assumption of classical behavior for rotation
           may cause significant error
 Rotational temperatures (Kelvin)      0.08402     0.02276     0.02125
 Rotational constants (GHZ):           1.75059     0.47418     0.44281
    1 imaginary frequencies ignored.
 Zero-point vibrational energy     737432.5 (Joules/Mol)
                                  176.25059 (Kcal/Mol)
 Warning -- explicit consideration of  16 degrees of freedom as
           vibrations may cause significant error
 Vibrational temperatures:     57.95   144.73   169.58   294.03   303.47
          (Kelvin)            359.96   411.34   494.57   530.61   585.39
                              617.83   642.91   696.49   753.86   769.69
                              850.76   963.85  1080.37  1148.33  1200.47
                             1211.19  1233.87  1258.52  1284.72  1299.08
                             1310.43  1334.46  1389.07  1413.85  1488.77
                             1496.04  1519.31  1528.40  1533.03  1555.18
                             1581.26  1650.31  1664.74  1677.99  1722.77
                             1735.69  1767.95  1782.88  1789.45  1843.31
                             1889.69  1895.38  1930.54  1950.40  1967.58
                             1970.80  1989.99  1997.35  1999.95  2006.70
                             2019.26  2029.16  2039.83  2056.97  2059.43
                             2109.19  2113.68  2119.25  2143.10  2145.94
                             2149.15  2165.46  2169.81  4367.59  4373.78
                             4400.74  4410.54  4419.39  4421.13  4431.33
                             4439.15  4441.24  4483.59  4489.45  4494.98
                             4503.81  4514.24  4514.97  4517.72  4524.68
                             4570.09

 Zero-point correction=                           0.280873 (Hartree/Particle)
 Thermal correction to Energy=                    0.291748
 Thermal correction to Enthalpy=                  0.292692
 Thermal correction to Gibbs Free Energy=         0.243933
 Sum of electronic and zero-point Energies=           -617.218159
 Sum of electronic and thermal Energies=              -617.207284
 Sum of electronic and thermal Enthalpies=            -617.206340
 Sum of electronic and thermal Free Energies=         -617.255099

                     E (Thermal)             CV                S
                      KCal/Mol        Cal/Mol-Kelvin    Cal/Mol-Kelvin
 Total                  183.075             44.675            102.622
 Electronic               0.000              0.000              0.000
 Translational            0.889              2.981             41.570
 Rotational               0.889              2.981             31.148
 Vibrational            181.297             38.713             29.904
 Vibration     1          0.594              1.981              5.246
 Vibration     2          0.604              1.949              3.443
 Vibration     3          0.608              1.934              3.135
 Vibration     4          0.640              1.834              2.093
 Vibration     5          0.643              1.824              2.036
 Vibration     6          0.663              1.762              1.729
 Vibration     7          0.684              1.700              1.498
 Vibration     8          0.722              1.588              1.195
 Vibration     9          0.741              1.536              1.085
 Vibration    10          0.772              1.455              0.938
 Vibration    11          0.791              1.406              0.861
 Vibration    12          0.806              1.368              0.805
 Vibration    13          0.840              1.285              0.699
 Vibration    14          0.879              1.197              0.601
 Vibration    15          0.890              1.173              0.576
 Vibration    16          0.949              1.050              0.465

 Optimization completed.
    -- Stationary point found.
 Normal termination of Gaussian 16 at Sat Mar  9 04:02:30 2019.
