 Gaussian 16, Revision B.01,
 Gaussian 16:  ES64L-G16RevB.01 20-Dec-2017

 ----------------------------------------------------------------------
 #M062X/6-311++G(2d,2p) opt=ModRedundant freq=noraman SCRF=(SMD,solvent
 =water)
 ----------------------------------------------------------------------

 --------------------------------
 4c1_a1_a4_4c1_PSI.inp_extract_13
 --------------------------------
 Symbolic Z-matrix:
 Charge =  0 Multiplicity = 1

 SCF Done:  E(RM062X) =  -617.499495205     A.U. after   13 cycles
 SCF Done:  E(RM062X) =  -617.499936798     A.U. after   12 cycles
 SCF Done:  E(RM062X) =  -617.501332869     A.U. after   11 cycles
 SCF Done:  E(RM062X) =  -617.501657921     A.U. after   10 cycles
 SCF Done:  E(RM062X) =  -617.501775439     A.U. after    9 cycles
 SCF Done:  E(RM062X) =  -617.501782754     A.U. after    8 cycles
 SCF Done:  E(RM062X) =  -617.501783785     A.U. after    8 cycles
 SCF Done:  E(RM062X) =  -617.501784051     A.U. after    7 cycles
 SCF Done:  E(RM062X) =  -617.501784117     A.U. after    7 cycles
 Optimization completed.
    -- Stationary point found.
 Normal termination of Gaussian 16 at Sat Mar  9 01:48:15 2019.

 ----------------------------------------------------------------------
 #N Geom=AllCheck Guess=TCheck SCRF=Check GenChk RM062X/6-311++G(2d,2p)
  Freq
 ----------------------------------------------------------------------

 Structure from the checkpoint file:  "4c1_a1_a4_4c1_PSI.inp_extract_13.chk"
 --------------------------------
 4c1_a1_a4_4c1_PSI.inp_extract_13
 --------------------------------
 Charge =  0 Multiplicity = 1

                         Standard orientation:
 ---------------------------------------------------------------------
 Center     Atomic      Atomic             Coordinates (Angstroms)
 Number     Number       Type             X           Y           Z
 ---------------------------------------------------------------------
      1          6           0       -2.041909   -1.365426    0.414489
      2          6           0        0.694944   -0.389390   -0.421840
      3          6           0       -1.154548   -0.392192    1.183207
      4          6           0        3.398319    0.572106   -0.106574
      5          6           0       -3.073621    0.325567   -0.857521
      6          8           0       -2.406068   -0.934028   -0.890268
      7          6           0        3.082217   -0.891447    0.192103
      8          6           0        2.159013    1.419969    0.112876
      9          6           0        1.874514   -1.324049   -0.636401
     10          6           0       -2.145293    1.407062   -0.337347
     11          8           0        1.057929    0.957912   -0.678214
     12          8           0        0.243411   -0.541425    0.905017
     13          6           0       -1.664638    1.046944    1.069567
     14          1           0       -2.953066   -1.519808    1.003192
     15          1           0       -1.533193   -2.321841    0.300254
     16          1           0       -0.107846   -0.604016   -1.123241
     17          1           0       -1.216369   -0.691198    2.229508
     18          1           0        3.722185    0.675279   -1.145185
     19          1           0        4.201170    0.942841    0.531418
     20          1           0       -3.393920    0.528417   -1.877296
     21          1           0       -3.962817    0.241877   -0.221225
     22          1           0        2.863753   -1.007681    1.255987
     23          1           0        3.937671   -1.527214   -0.033672
     24          1           0        2.320806    2.452604   -0.188798
     25          1           0        1.875047    1.411989    1.168493
     26          1           0        2.128464   -1.292626   -1.697764
     27          1           0        1.560956   -2.339678   -0.396749
     28          1           0       -2.674718    2.360175   -0.320250
     29          1           0       -1.304964    1.508996   -1.024060
     30          1           0       -0.888373    1.728929    1.417177
     31          1           0       -2.510950    1.138413    1.754578
 ---------------------------------------------------------------------

 SCF Done:  E(RM062X) =  -617.501784117     A.U. after    1 cycles

 The electronic state is 1-A.
 Alpha  occ. eigenvalues --  -19.62845 -19.62835 -19.62694 -10.62766 -10.58499
 Alpha  occ. eigenvalues --  -10.57672 -10.57265 -10.57132 -10.52581 -10.52315
 Alpha  occ. eigenvalues --  -10.52277 -10.52127 -10.52099  -1.19303  -1.16117
 Alpha  occ. eigenvalues --   -1.12834  -0.90243  -0.88887  -0.86680  -0.84171
 Alpha  occ. eigenvalues --   -0.74369  -0.73680  -0.72484  -0.70468  -0.65861
 Alpha  occ. eigenvalues --   -0.62106  -0.58829  -0.58054  -0.56491  -0.54654
 Alpha  occ. eigenvalues --   -0.54281  -0.52145  -0.51312  -0.50435  -0.49634
 Alpha  occ. eigenvalues --   -0.48248  -0.45836  -0.45499  -0.45092  -0.44836
 Alpha  occ. eigenvalues --   -0.42955  -0.42195  -0.40808  -0.39600  -0.39070
 Alpha  occ. eigenvalues --   -0.37593  -0.37168  -0.36454  -0.34197  -0.32908
 Alpha  occ. eigenvalues --   -0.31344
 Alpha virt. eigenvalues --    0.00293   0.01203   0.01392   0.01609   0.02779
 Alpha virt. eigenvalues --    0.03013   0.03122   0.03715   0.03896   0.05145
 Alpha virt. eigenvalues --    0.05235   0.05577   0.05936   0.06161   0.07646

 Mulliken charges:
               1
     1  C   -0.409936
     2  C   -0.081961
     3  C    0.233755
     4  C   -0.421272
     5  C   -0.312896
     6  O   -0.335952
     7  C   -0.288737
     8  C   -0.090635
     9  C   -0.570701
    10  C   -0.124689
    11  O   -0.294432
    12  O   -0.360364
    13  C   -0.599185
    14  H    0.198922
    15  H    0.218522
    16  H    0.321282
    17  H    0.261811
    18  H    0.163544
    19  H    0.183194
    20  H    0.205708
    21  H    0.164871
    22  H    0.179954
    23  H    0.191459
    24  H    0.212463
    25  H    0.152398
    26  H    0.199035
    27  H    0.178478
    28  H    0.217370
    29  H    0.202818
    30  H    0.162893
    31  H    0.242282
 Sum of Mulliken charges =  -0.00000

 Dipole moment (field-independent basis, Debye):
    X=             -0.4985    Y=              0.4718    Z=              1.8980  Tot=              2.0183
 Quadrupole moment (field-independent basis, Debye-Ang):
   XX=            -69.4873   YY=            -78.7845   ZZ=            -81.3915
   XY=             -2.8106   XZ=             -4.8490   YZ=             -0.0506

  Exact polarizability: 179.311   0.643 173.588  -0.326  -1.271 169.196
 Approx polarizability: 144.228   0.286 142.135  -0.392  -1.239 143.147

                      1                      2                      3
                      A                      A                      A
 Frequencies --     31.7179                61.9656                98.6124
 Red. masses --      3.8270                 3.6769                 3.4400
 Frc consts  --      0.0023                 0.0083                 0.0197
 IR Inten    --      0.8569                 6.0963                 3.1321

                      4                      5                      6
                      A                      A                      A
 Frequencies --    128.1299               188.5154               212.6195
 Red. masses --      3.7713                 3.4233                 2.7166
 Frc consts  --      0.0365                 0.0717                 0.0724
 IR Inten    --      2.0360                 5.9629                 3.6426

                      7                      8                      9
                      A                      A                      A
 Frequencies --    237.3013               306.4198               349.6893
 Red. masses --      2.4936                 2.0856                 2.4875
 Frc consts  --      0.0827                 0.1154                 0.1792
 IR Inten    --      2.6480                 4.2055                 7.4066

                     10                     11                     12
                      A                      A                      A
 Frequencies --    364.8734               416.3830               428.0025
 Red. masses --      2.3084                 2.2087                 2.2601
 Frc consts  --      0.1811                 0.2256                 0.2439
 IR Inten    --      2.2132                 4.5684                12.9565

                     13                     14                     15
                      A                      A                      A
 Frequencies --    437.0417               474.1472               517.3977
 Red. masses --      3.8665                 3.9899                 2.3435
 Frc consts  --      0.4351                 0.5285                 0.3696
 IR Inten    --     16.6091                12.3889                 1.6619

                     16                     17                     18
                      A                      A                      A
 Frequencies --    533.1798               575.5086               671.5932
 Red. masses --      1.9892                 3.9486                 2.7373
 Frc consts  --      0.3332                 0.7705                 0.7274
 IR Inten    --      4.5459                34.3291                 3.8861

                     19                     20                     21
                      A                      A                      A
 Frequencies --    754.5689               794.5468               838.0698
 Red. masses --      2.3465                 3.1638                 1.5280
 Frc consts  --      0.7872                 1.1768                 0.6323
 IR Inten    --      5.3623                 2.1777                 4.1028

                     22                     23                     24
                      A                      A                      A
 Frequencies --    846.2724               854.1437               876.9888
 Red. masses --      3.3947                 1.7400                 2.5963
 Frc consts  --      1.4324                 0.7479                 1.1765
 IR Inten    --      7.1441                18.4356                20.6430

                     25                     26                     27
                      A                      A                      A
 Frequencies --    895.0228               903.8981               909.5270
 Red. masses --      2.4661                 2.6413                 2.3064
 Frc consts  --      1.1640                 1.2715                 1.1241
 IR Inten    --     38.3056                48.1160                28.9544

                     28                     29                     30
                      A                      A                      A
 Frequencies --    929.3379               965.4817               990.7717
 Red. masses --      1.6840                 1.7340                 2.0457
 Frc consts  --      0.8569                 0.9524                 1.1831
 IR Inten    --     12.6724                 8.6065                54.4516

                     31                     32                     33
                      A                      A                      A
 Frequencies --   1034.9547              1036.4857              1058.2496
 Red. masses --      2.0551                 2.0129                 1.8035
 Frc consts  --      1.2969                 1.2741                 1.1900
 IR Inten    --     21.5864                 8.8340                31.6545

                     34                     35                     36
                      A                      A                      A
 Frequencies --   1062.7237              1065.3489              1080.9118
 Red. masses --      1.5393                 2.2335                 2.4083
 Frc consts  --      1.0243                 1.4935                 1.6578
 IR Inten    --     38.9109                60.5248               262.8862

                     37                     38                     39
                      A                      A                      A
 Frequencies --   1101.1825              1146.4286              1158.3006
 Red. masses --      1.6681                 2.8132                 2.8097
 Frc consts  --      1.1918                 2.1784                 2.2210
 IR Inten    --     68.8272               117.0279               145.1390

                     40                     41                     42
                      A                      A                      A
 Frequencies --   1168.2771              1201.1232              1208.4946
 Red. masses --      2.4637                 2.4890                 1.5459
 Frc consts  --      1.9812                 2.1157                 1.3302
 IR Inten    --     20.7214               118.7220                60.6164

                     43                     44                     45
                      A                      A                      A
 Frequencies --   1224.4508              1232.3130              1240.0660
 Red. masses --      1.4173                 1.6584                 1.7862
 Frc consts  --      1.2520                 1.4838                 1.6184
 IR Inten    --     80.4301                43.7528                59.0979

                     46                     47                     48
                      A                      A                      A
 Frequencies --   1282.6623              1315.0272              1317.2050
 Red. masses --      1.2189                 1.1595                 1.1691
 Frc consts  --      1.1816                 1.1814                 1.1951
 IR Inten    --     25.2323                19.6430                21.2534

                     49                     50                     51
                      A                      A                      A
 Frequencies --   1343.4824              1355.4510              1357.8653
 Red. masses --      1.3353                 1.4864                 1.3474
 Frc consts  --      1.4200                 1.6090                 1.4637
 IR Inten    --     38.3373                 2.6678                 3.0453

                     52                     53                     54
                      A                      A                      A
 Frequencies --   1369.5952              1384.1854              1388.5584
 Red. masses --      1.3457                 1.5129                 1.5495
 Frc consts  --      1.4873                 1.7078                 1.7602
 IR Inten    --     13.0577                 3.1812                14.1487

                     55                     56                     57
                      A                      A                      A
 Frequencies --   1390.8865              1400.8331              1404.6045
 Red. masses --      1.6911                 1.3222                 1.3734
 Frc consts  --      1.9275                 1.5287                 1.5964
 IR Inten    --     14.8231                 0.9746                 4.8273

                     58                     59                     60
                      A                      A                      A
 Frequencies --   1419.1177              1427.7972              1435.7534
 Red. masses --      1.3608                 1.3231                 1.2448
 Frc consts  --      1.6147                 1.5892                 1.5118
 IR Inten    --     23.0985                 9.2549                 8.8281

                     61                     62                     63
                      A                      A                      A
 Frequencies --   1443.5139              1462.8396              1470.8763
 Red. masses --      1.2906                 1.1114                 1.1086
 Frc consts  --      1.5844                 1.4013                 1.4132
 IR Inten    --     41.4318                10.3212                 5.8575

                     64                     65                     66
                      A                      A                      A
 Frequencies --   1473.8391              1481.8702              1483.1889
 Red. masses --      1.0881                 1.0931                 1.0992
 Frc consts  --      1.3926                 1.4142                 1.4248
 IR Inten    --      8.8095                10.2492                 8.2910

                     67                     68                     69
                      A                      A                      A
 Frequencies --   1490.8470              1504.2954              1505.5265
 Red. masses --      1.1131                 1.0976                 1.0928
 Frc consts  --      1.4577                 1.4634                 1.4594
 IR Inten    --     16.5500                 5.6995                 3.1309

                     70                     71                     72
                      A                      A                      A
 Frequencies --   3026.8405              3039.5116              3060.2807
 Red. masses --      1.0702                 1.0680                 1.0683
 Frc consts  --      5.7769                 5.8136                 5.8950
 IR Inten    --     83.3243                55.0266                29.2186

                     73                     74                     75
                      A                      A                      A
 Frequencies --   3066.4675              3067.1361              3070.9425
 Red. masses --      1.0638                 1.0645                 1.0630
 Frc consts  --      5.8935                 5.9000                 5.9067
 IR Inten    --     71.9291                12.7153                40.7988

                     76                     77                     78
                      A                      A                      A
 Frequencies --   3078.4473              3083.3564              3102.4822
 Red. masses --      1.0623                 1.0609                 1.0856
 Frc consts  --      5.9315                 5.9424                 6.1568
 IR Inten    --     32.2583                25.9107                52.4406

                     79                     80                     81
                      A                      A                      A
 Frequencies --   3114.7265              3117.0972              3119.0985
 Red. masses --      1.0975                 1.1004                 1.1024
 Frc consts  --      6.2734                 6.2994                 6.3193
 IR Inten    --     43.6411                31.7779                66.9756

                     82                     83                     84
                      A                      A                      A
 Frequencies --   3128.2391              3128.7152              3131.0638
 Red. masses --      1.1036                 1.1037                 1.0973
 Frc consts  --      6.3629                 6.3655                 6.3379
 IR Inten    --     47.4341                51.9347                22.5483

                     85                     86                     87
                      A                      A                      A
 Frequencies --   3137.9564              3138.6268              3146.2085
 Red. masses --      1.0963                 1.0987                 1.0887
 Frc consts  --      6.3601                 6.3766                 6.3495
 IR Inten    --     46.4740                38.3294                18.3444

 - Thermochemistry -
 -------------------
 Temperature   298.150 Kelvin.  Pressure   1.00000 Atm.
 Atom     1 has atomic number  6 and mass  12.00000

 Molecular mass:   186.12559 amu.
 Principal axes and moments of inertia in atomic units:
                           1         2         3
     Eigenvalues --  1092.362653471.874593788.94276
           X            0.99994  -0.01027  -0.00437
           Y            0.01031   0.99990   0.00986
           Z            0.00427  -0.00991   0.99994
 This molecule is an asymmetric top.
 Rotational symmetry number  1.
 Warning -- assumption of classical behavior for rotation
           may cause significant error
 Rotational temperatures (Kelvin)      0.07929     0.02495     0.02286
 Rotational constants (GHZ):           1.65214     0.51982     0.47632
 Zero-point vibrational energy     737366.5 (Joules/Mol)
                                  176.23483 (Kcal/Mol)
 Warning -- explicit consideration of  17 degrees of freedom as
           vibrations may cause significant error
 Vibrational temperatures:     45.64    89.15   141.88   184.35   271.23
          (Kelvin)            305.91   341.42   440.87   503.12   524.97
                              599.08   615.80   628.81   682.19   744.42
                              767.13   828.03   966.27  1085.66  1143.18
                             1205.80  1217.60  1228.92  1261.79  1287.74
                             1300.51  1308.61  1337.11  1389.11  1425.50
                             1489.07  1491.27  1522.59  1529.02  1532.80
                             1555.19  1584.36  1649.46  1666.54  1680.89
                             1728.15  1738.75  1761.71  1773.02  1784.18
                             1845.46  1892.03  1895.16  1932.97  1950.19
                             1953.67  1970.54  1991.53  1997.83  2001.18
                             2015.49  2020.91  2041.79  2054.28  2065.73
                             2076.89  2104.70  2116.26  2120.53  2132.08
                             2133.98  2145.00  2164.35  2166.12  4354.95
                             4373.18  4403.06  4411.96  4412.92  4418.40
                             4429.20  4436.26  4463.78  4481.40  4484.81
                             4487.69  4500.84  4501.52  4504.90  4514.82
                             4515.78  4526.69

 Zero-point correction=                           0.280848 (Hartree/Particle)
 Thermal correction to Energy=                    0.292567
 Thermal correction to Enthalpy=                  0.293511
 Thermal correction to Gibbs Free Energy=         0.242471
 Sum of electronic and zero-point Energies=           -617.220936
 Sum of electronic and thermal Energies=              -617.209217
 Sum of electronic and thermal Enthalpies=            -617.208273
 Sum of electronic and thermal Free Energies=         -617.259313

                     E (Thermal)             CV                S
                      KCal/Mol        Cal/Mol-Kelvin    Cal/Mol-Kelvin
 Total                  183.589             46.684            107.424
 Electronic               0.000              0.000              0.000
 Translational            0.889              2.981             41.570
 Rotational               0.889              2.981             31.042
 Vibrational            181.811             40.722             34.812
 Vibration     1          0.594              1.983              5.719
 Vibration     2          0.597              1.972              4.394
 Vibration     3          0.604              1.950              3.482
 Vibration     4          0.611              1.925              2.974
 Vibration     5          0.633              1.856              2.242
 Vibration     6          0.644              1.822              2.021
 Vibration     7          0.656              1.784              1.823
 Vibration     8          0.697              1.662              1.382
 Vibration     9          0.727              1.576              1.168
 Vibration    10          0.738              1.545              1.101
 Vibration    11          0.780              1.435              0.904
 Vibration    12          0.790              1.409              0.865
 Vibration    13          0.797              1.389              0.836
 Vibration    14          0.831              1.307              0.726
 Vibration    15          0.872              1.211              0.616
 Vibration    16          0.888              1.177              0.580
 Vibration    17          0.932              1.084              0.494

 Optimization completed.
    -- Stationary point found.
 Normal termination of Gaussian 16 at Sat Mar  9 02:55:41 2019.
