 Gaussian 16, Revision B.01,
 Gaussian 16:  ES64L-G16RevB.01 20-Dec-2017

 ----------------------------------------------------------------------
 #M062X/6-311++G(2d,2p) opt=ModRedundant freq=noraman SCRF=(SMD,solvent
 =water)
 ----------------------------------------------------------------------

 -------------------------------
 4c1_a1_a4_4c1_PSI.inp_extract_3
 -------------------------------
 Symbolic Z-matrix:
 Charge =  0 Multiplicity = 1

 SCF Done:  E(RM062X) =  -617.507001171     A.U. after   12 cycles
 SCF Done:  E(RM062X) =  -617.508855476     A.U. after   10 cycles
 SCF Done:  E(RM062X) =  -617.508991740     A.U. after   10 cycles
 SCF Done:  E(RM062X) =  -617.509172246     A.U. after   10 cycles
 SCF Done:  E(RM062X) =  -617.509178570     A.U. after    9 cycles
 SCF Done:  E(RM062X) =  -617.509180793     A.U. after    8 cycles
 SCF Done:  E(RM062X) =  -617.509180807     A.U. after    7 cycles
 Optimization completed.
    -- Stationary point found.
 Normal termination of Gaussian 16 at Fri Mar  8 23:34:38 2019.

 ----------------------------------------------------------------------
 #N Geom=AllCheck Guess=TCheck SCRF=Check GenChk RM062X/6-311++G(2d,2p)
  Freq
 ----------------------------------------------------------------------

 Structure from the checkpoint file:  "4c1_a1_a4_4c1_PSI.inp_extract_3.chk"
 -------------------------------
 4c1_a1_a4_4c1_PSI.inp_extract_3
 -------------------------------
 Charge =  0 Multiplicity = 1

                         Standard orientation:
 ---------------------------------------------------------------------
 Center     Atomic      Atomic             Coordinates (Angstroms)
 Number     Number       Type             X           Y           Z
 ---------------------------------------------------------------------
      1          6           0       -1.482894    1.025351   -0.877179
      2          6           0        1.224687   -0.853134   -0.731344
      3          6           0       -1.127234   -0.453134   -0.909031
      4          6           0        3.044528    0.894211    0.663485
      5          6           0       -3.044503    0.734894    0.860279
      6          8           0       -1.881129    1.437880    0.423247
      7          6           0        2.614372   -0.414297    1.321561
      8          6           0        1.954165    1.371786   -0.276779
      9          6           0        2.243249   -1.424977    0.238879
     10          6           0       -2.785913   -0.759660    0.941550
     11          8           0        1.648403    0.385529   -1.271385
     12          8           0       -0.005657   -0.725757   -0.061096
     13          6           0       -2.306763   -1.279847   -0.413584
     14          1           0       -2.297685    1.205825   -1.587694
     15          1           0       -0.631053    1.639422   -1.157652
     16          1           0        1.098829   -1.502663   -1.599579
     17          1           0       -0.874361   -0.727880   -1.935947
     18          1           0        3.966052    0.740243    0.096871
     19          1           0        3.235117    1.667839    1.407810
     20          1           0       -3.304349    1.149184    1.832175
     21          1           0       -3.863994    0.940074    0.161505
     22          1           0        1.753719   -0.229714    1.968365
     23          1           0        3.410553   -0.814933    1.948019
     24          1           0        2.255224    2.258851   -0.829834
     25          1           0        1.049660    1.609267    0.290264
     26          1           0        3.131280   -1.683344   -0.340861
     27          1           0        1.842512   -2.344894    0.662924
     28          1           0       -3.701027   -1.266792    1.247665
     29          1           0       -2.031116   -0.949492    1.706835
     30          1           0       -2.021098   -2.329885   -0.359405
     31          1           0       -3.113358   -1.189490   -1.144606
 ---------------------------------------------------------------------

 SCF Done:  E(RM062X) =  -617.509180807     A.U. after    1 cycles

 The electronic state is 1-A.
 Alpha  occ. eigenvalues --  -19.63090 -19.63012 -19.62898 -10.63140 -10.58272
 Alpha  occ. eigenvalues --  -10.57313 -10.57308 -10.57237 -10.52522 -10.52442
 Alpha  occ. eigenvalues --  -10.52351 -10.52295 -10.52185  -1.19795  -1.16098
 Alpha  occ. eigenvalues --   -1.13032  -0.90536  -0.89182  -0.86602  -0.84009
 Alpha  occ. eigenvalues --   -0.73773  -0.73481  -0.72298  -0.71255  -0.65648
 Alpha  occ. eigenvalues --   -0.62455  -0.59657  -0.57420  -0.57292  -0.54662
 Alpha  occ. eigenvalues --   -0.54221  -0.52715  -0.51654  -0.49963  -0.49107
 Alpha  occ. eigenvalues --   -0.47774  -0.46799  -0.45575  -0.45381  -0.44377
 Alpha  occ. eigenvalues --   -0.43175  -0.42623  -0.41043  -0.39305  -0.38175
 Alpha  occ. eigenvalues --   -0.37781  -0.37208  -0.36078  -0.35486  -0.33169
 Alpha  occ. eigenvalues --   -0.31761
 Alpha virt. eigenvalues --    0.00354   0.01313   0.01335   0.01587   0.02711
 Alpha virt. eigenvalues --    0.03024   0.03170   0.03637   0.03869   0.05180
 Alpha virt. eigenvalues --    0.05360   0.05398   0.05749   0.06183   0.07884

 Mulliken charges:
               1
     1  C   -0.597701
     2  C   -0.094064
     3  C    0.295819
     4  C   -0.421950
     5  C   -0.170298
     6  O   -0.317933
     7  C   -0.306080
     8  C   -0.110316
     9  C   -0.379484
    10  C   -0.330116
    11  O   -0.339026
    12  O   -0.308793
    13  C   -0.451435
    14  H    0.203668
    15  H    0.235678
    16  H    0.245854
    17  H    0.249046
    18  H    0.171769
    19  H    0.179019
    20  H    0.207946
    21  H    0.162215
    22  H    0.173063
    23  H    0.193864
    24  H    0.224035
    25  H    0.155440
    26  H    0.199353
    27  H    0.186469
    28  H    0.187428
    29  H    0.170736
    30  H    0.179255
    31  H    0.206539
 Sum of Mulliken charges =  -0.00000

 Dipole moment (field-independent basis, Debye):
    X=             -0.9464    Y=             -1.8902    Z=             -0.6411  Tot=              2.2090
 Quadrupole moment (field-independent basis, Debye-Ang):
   XX=            -68.0560   YY=            -79.8418   ZZ=            -80.0627
   XY=              2.6326   XZ=              4.8859   YZ=              0.7194

  Exact polarizability: 179.511   1.327 172.231  -0.821   0.554 171.024
 Approx polarizability: 145.120   1.264 141.235  -1.034   0.695 143.353

                      1                      2                      3
                      A                      A                      A
 Frequencies --     29.4965                73.5402                97.0532
 Red. masses --      3.8010                 3.7701                 3.5989
 Frc consts  --      0.0019                 0.0120                 0.0200
 IR Inten    --      1.3087                 2.2017                 4.1912

                      4                      5                      6
                      A                      A                      A
 Frequencies --    151.1661               183.3662               238.3943
 Red. masses --      3.4446                 3.0375                 2.6952
 Frc consts  --      0.0464                 0.0602                 0.0902
 IR Inten    --      1.5427                 1.8382                15.0501

                      7                      8                      9
                      A                      A                      A
 Frequencies --    267.3793               284.9534               327.5421
 Red. masses --      4.7496                 2.2919                 1.9707
 Frc consts  --      0.2001                 0.1096                 0.1246
 IR Inten    --      3.6696                 9.0076                 2.1660

                     10                     11                     12
                      A                      A                      A
 Frequencies --    393.0254               399.5174               434.6132
 Red. masses --      2.1395                 2.3415                 3.1187
 Frc consts  --      0.1947                 0.2202                 0.3471
 IR Inten    --      9.2141                 3.0637                 3.8793

                     13                     14                     15
                      A                      A                      A
 Frequencies --    448.5351               487.0628               529.0468
 Red. masses --      2.3631                 3.9007                 2.3660
 Frc consts  --      0.2801                 0.5452                 0.3902
 IR Inten    --     11.8178                 6.5538                 3.8604

                     16                     17                     18
                      A                      A                      A
 Frequencies --    533.1610               597.2485               687.1283
 Red. masses --      2.0539                 3.1921                 2.8790
 Frc consts  --      0.3440                 0.6709                 0.8009
 IR Inten    --      1.0336                19.0726                18.5304

                     19                     20                     21
                      A                      A                      A
 Frequencies --    739.7356               833.9886               842.3083
 Red. masses --      2.5425                 1.8948                 2.4548
 Frc consts  --      0.8197                 0.7765                 1.0261
 IR Inten    --      3.3233                 1.9010                 9.1060

                     22                     23                     24
                      A                      A                      A
 Frequencies --    854.6972               868.9725               880.1726
 Red. masses --      3.3988                 2.0720                 1.6210
 Frc consts  --      1.4629                 0.9218                 0.7399
 IR Inten    --      5.8278                 9.2885                14.0619

                     25                     26                     27
                      A                      A                      A
 Frequencies --    902.2671               903.4934               909.4572
 Red. masses --      2.5348                 2.3148                 2.4153
 Frc consts  --      1.2158                 1.1133                 1.1770
 IR Inten    --     49.0069                20.8968                55.3879

                     28                     29                     30
                      A                      A                      A
 Frequencies --    939.3988               948.3410              1008.1254
 Red. masses --      1.7362                 1.7415                 1.6925
 Frc consts  --      0.9027                 0.9228                 1.0134
 IR Inten    --      4.9557                17.4395                25.3100

                     31                     32                     33
                      A                      A                      A
 Frequencies --   1034.5604              1046.4270              1054.8865
 Red. masses --      2.3396                 2.1112                 1.9861
 Frc consts  --      1.4754                 1.3620                 1.3022
 IR Inten    --      7.6855                13.6903                12.7380

                     34                     35                     36
                      A                      A                      A
 Frequencies --   1064.7492              1068.5260              1081.2888
 Red. masses --      1.6370                 1.7589                 2.1447
 Frc consts  --      1.0934                 1.1832                 1.4774
 IR Inten    --     28.9726                43.1937               253.2863

                     37                     38                     39
                      A                      A                      A
 Frequencies --   1097.6064              1143.9496              1157.7171
 Red. masses --      1.7471                 2.7167                 2.4712
 Frc consts  --      1.2401                 2.0946                 1.9515
 IR Inten    --    105.0879               186.1620                50.6683

                     40                     41                     42
                      A                      A                      A
 Frequencies --   1179.7553              1195.0818              1211.6701
 Red. masses --      2.4780                 3.1295                 1.4806
 Frc consts  --      2.0320                 2.6334                 1.2808
 IR Inten    --     52.9341               194.7870                23.4408

                     43                     44                     45
                      A                      A                      A
 Frequencies --   1227.5531              1236.6951              1241.3821
 Red. masses --      1.4293                 1.7698                 1.7626
 Frc consts  --      1.2690                 1.5948                 1.6003
 IR Inten    --     87.6433                82.2357                43.2775

                     46                     47                     48
                      A                      A                      A
 Frequencies --   1285.1002              1298.2356              1322.5134
 Red. masses --      1.2189                 1.1493                 1.1580
 Frc consts  --      1.1860                 1.1413                 1.1933
 IR Inten    --     49.5194                 0.8368                15.5386

                     49                     50                     51
                      A                      A                      A
 Frequencies --   1335.2182              1355.1215              1359.3268
 Red. masses --      1.2384                 1.3759                 1.4148
 Frc consts  --      1.3008                 1.4887                 1.5403
 IR Inten    --     17.3861                24.3842                 3.4659

                     52                     53                     54
                      A                      A                      A
 Frequencies --   1367.4748              1377.9391              1386.0589
 Red. masses --      1.5720                 1.3214                 1.5003
 Frc consts  --      1.7320                 1.4783                 1.6983
 IR Inten    --      3.8834                42.4449                 6.0386

                     55                     56                     57
                      A                      A                      A
 Frequencies --   1391.1027              1394.2106              1404.5539
 Red. masses --      1.4763                 1.6660                 1.3322
 Frc consts  --      1.6832                 1.9081                 1.5485
 IR Inten    --      7.1612                43.2010                 0.8262

                     58                     59                     60
                      A                      A                      A
 Frequencies --   1406.1870              1426.6460              1435.1023
 Red. masses --      1.4075                 1.3767                 1.4475
 Frc consts  --      1.6397                 1.6509                 1.7564
 IR Inten    --     11.0558                 9.5086                23.4039

                     61                     62                     63
                      A                      A                      A
 Frequencies --   1442.1376              1470.4015              1470.5806
 Red. masses --      1.2917                 1.1018                 1.0977
 Frc consts  --      1.5828                 1.4036                 1.3987
 IR Inten    --      6.2081                 4.7433                 6.6911

                     64                     65                     66
                      A                      A                      A
 Frequencies --   1473.2820              1480.4746              1490.2077
 Red. masses --      1.0869                 1.1205                 1.1188
 Frc consts  --      1.3900                 1.4469                 1.4638
 IR Inten    --      9.4861                16.5437                17.9577

                     67                     68                     69
                      A                      A                      A
 Frequencies --   1497.3540              1505.0413              1505.7623
 Red. masses --      1.0824                 1.1012                 1.0956
 Frc consts  --      1.4298                 1.4697                 1.4635
 IR Inten    --      3.2598                13.0494                 1.3281

                     70                     71                     72
                      A                      A                      A
 Frequencies --   3030.3494              3040.5728              3058.3490
 Red. masses --      1.0699                 1.0705                 1.0689
 Frc consts  --      5.7888                 5.8312                 5.8907
 IR Inten    --     77.9685                55.8371                44.4944

                     73                     74                     75
                      A                      A                      A
 Frequencies --   3065.7040              3069.2999              3069.6026
 Red. masses --      1.0649                 1.0706                 1.0650
 Frc consts  --      5.8967                 5.9423                 5.9124
 IR Inten    --     31.9513                 3.5304                65.0583

                     76                     77                     78
                      A                      A                      A
 Frequencies --   3076.7166              3078.4786              3079.7385
 Red. masses --      1.0626                 1.0723                 1.0697
 Frc consts  --      5.9264                 5.9875                 5.9777
 IR Inten    --     19.2565                48.5642                27.9060

                     79                     80                     81
                      A                      A                      A
 Frequencies --   3090.0440              3116.2222              3120.0730
 Red. masses --      1.0808                 1.0972                 1.1028
 Frc consts  --      6.0804                 6.2778                 6.3250
 IR Inten    --    103.6174                34.0520                72.9749

                     82                     83                     84
                      A                      A                      A
 Frequencies --   3120.3852              3126.2697              3132.3945
 Red. masses --      1.1004                 1.1042                 1.1032
 Frc consts  --      6.3125                 6.3586                 6.3776
 IR Inten    --     33.3647                59.3845                43.0655

                     85                     86                     87
                      A                      A                      A
 Frequencies --   3137.1024              3139.8314              3159.2163
 Red. masses --      1.0962                 1.0989                 1.0939
 Frc consts  --      6.3559                 6.3827                 6.4327
 IR Inten    --     47.9923                44.1134                20.8685

 - Thermochemistry -
 -------------------
 Temperature   298.150 Kelvin.  Pressure   1.00000 Atm.
 Atom     1 has atomic number  6 and mass  12.00000

 Molecular mass:   186.12559 amu.
 Principal axes and moments of inertia in atomic units:
                           1         2         3
     Eigenvalues --  1187.363913528.920343756.82834
           X            0.99992   0.00786   0.01019
           Y           -0.00775   0.99991  -0.01123
           Z           -0.01028   0.01115   0.99989
 This molecule is an asymmetric top.
 Rotational symmetry number  1.
 Warning -- assumption of classical behavior for rotation
           may cause significant error
 Rotational temperatures (Kelvin)      0.07295     0.02454     0.02306
 Rotational constants (GHZ):           1.51996     0.51141     0.48039
 Zero-point vibrational energy     738247.9 (Joules/Mol)
                                  176.44549 (Kcal/Mol)
 Warning -- explicit consideration of  17 degrees of freedom as
           vibrations may cause significant error
 Vibrational temperatures:     42.44   105.81   139.64   217.49   263.82
          (Kelvin)            343.00   384.70   409.98   471.26   565.48
                              574.82   625.31   645.34   700.77   761.18
                              767.10   859.31   988.62  1064.31  1199.92
                             1211.89  1229.72  1250.26  1266.37  1298.16
                             1299.93  1308.51  1351.59  1364.45  1450.47
                             1488.50  1505.58  1517.75  1531.94  1537.37
                             1555.73  1579.21  1645.89  1665.70  1697.40
                             1719.46  1743.32  1766.18  1779.33  1786.07
                             1848.97  1867.87  1902.80  1921.08  1949.72
                             1955.77  1967.49  1982.55  1994.23  2001.49
                             2005.96  2020.84  2023.19  2052.63  2064.79
                             2074.91  2115.58  2115.84  2119.72  2130.07
                             2144.08  2154.36  2165.42  2166.46  4360.00
                             4374.71  4400.28  4410.86  4416.04  4416.47
                             4426.71  4429.24  4431.06  4445.88  4483.55
                             4489.09  4489.54  4498.00  4506.82  4513.59
                             4517.52  4545.41

 Zero-point correction=                           0.281184 (Hartree/Particle)
 Thermal correction to Energy=                    0.292744
 Thermal correction to Enthalpy=                  0.293688
 Thermal correction to Gibbs Free Energy=         0.243029
 Sum of electronic and zero-point Energies=           -617.227997
 Sum of electronic and thermal Energies=              -617.216437
 Sum of electronic and thermal Enthalpies=            -617.215493
 Sum of electronic and thermal Free Energies=         -617.266152

                     E (Thermal)             CV                S
                      KCal/Mol        Cal/Mol-Kelvin    Cal/Mol-Kelvin
 Total                  183.700             46.356            106.622
 Electronic               0.000              0.000              0.000
 Translational            0.889              2.981             41.570
 Rotational               0.889              2.981             31.132
 Vibrational            181.922             40.395             33.920
 Vibration     1          0.593              1.984              5.863
 Vibration     2          0.599              1.966              4.056
 Vibration     3          0.603              1.951              3.513
 Vibration     4          0.619              1.901              2.657
 Vibration     5          0.631              1.862              2.294
 Vibration     6          0.656              1.782              1.815
 Vibration     7          0.672              1.733              1.613
 Vibration     8          0.683              1.702              1.504
 Vibration     9          0.711              1.620              1.272
 Vibration    10          0.760              1.485              0.989
 Vibration    11          0.766              1.471              0.964
 Vibration    12          0.795              1.395              0.844
 Vibration    13          0.808              1.364              0.800
 Vibration    14          0.843              1.279              0.691
 Vibration    15          0.884              1.186              0.589
 Vibration    16          0.888              1.177              0.580
 Vibration    17          0.955              1.038              0.454

 Optimization completed.
    -- Stationary point found.
 Normal termination of Gaussian 16 at Sat Mar  9 00:36:53 2019.
