 Gaussian 16, Revision B.01,
 Gaussian 16:  ES64L-G16RevB.01 20-Dec-2017

 ----------------------------------------------------------------------
 #M062X/6-311++G(2d,2p) opt=ModRedundant freq=noraman SCRF=(SMD,solvent
 =water)
 ----------------------------------------------------------------------

 -------------------------------
 4c1_a1_a4_4c1_PSI.inp_extract_2
 -------------------------------
 Symbolic Z-matrix:
 Charge =  0 Multiplicity = 1

 SCF Done:  E(RM062X) =  -617.506549206     A.U. after   12 cycles
 SCF Done:  E(RM062X) =  -617.508286669     A.U. after   10 cycles
 SCF Done:  E(RM062X) =  -617.508404818     A.U. after   10 cycles
 SCF Done:  E(RM062X) =  -617.508500923     A.U. after   10 cycles
 SCF Done:  E(RM062X) =  -617.508504329     A.U. after    8 cycles
 Optimization completed.
    -- Stationary point found.
 Normal termination of Gaussian 16 at Fri Mar  8 22:46:29 2019.

 ----------------------------------------------------------------------
 #N Geom=AllCheck Guess=TCheck SCRF=Check GenChk RM062X/6-311++G(2d,2p)
  Freq
 ----------------------------------------------------------------------

 Structure from the checkpoint file:  "4c1_a1_a4_4c1_PSI.inp_extract_2.chk"
 -------------------------------
 4c1_a1_a4_4c1_PSI.inp_extract_2
 -------------------------------
 Charge =  0 Multiplicity = 1

                         Standard orientation:
 ---------------------------------------------------------------------
 Center     Atomic      Atomic             Coordinates (Angstroms)
 Number     Number       Type             X           Y           Z
 ---------------------------------------------------------------------
      1          6           0       -1.543552    1.211623   -0.654851
      2          6           0        1.201269   -0.808104   -0.721592
      3          6           0       -1.101833   -0.216366   -0.920987
      4          6           0        3.187507    0.768507    0.649793
      5          6           0       -3.188075    0.535815    0.887173
      6          8           0       -2.046589    1.364623    0.665824
      7          6           0        2.634068   -0.484378    1.323596
      8          6           0        2.143865    1.342479   -0.289544
      9          6           0        2.163494   -1.464636    0.251699
     10          6           0       -2.841938   -0.934677    0.726657
     11          8           0        1.734627    0.382899   -1.273136
     12          8           0       -0.010847   -0.554699   -0.054671
     13          6           0       -2.251022   -1.181985   -0.660960
     14          1           0       -2.318674    1.485235   -1.379536
     15          1           0       -0.706458    1.899039   -0.757085
     16          1           0        1.014897   -1.451721   -1.583206
     17          1           0       -0.773029   -0.286002   -1.959690
     18          1           0        4.085744    0.518024    0.080166
     19          1           0        3.458329    1.527160    1.384602
     20          1           0       -3.534458    0.756909    1.894563
     21          1           0       -3.973388    0.819647    0.176705
     22          1           0        1.797294   -0.210327    1.970013
     23          1           0        3.389220   -0.954475    1.952519
     24          1           0        2.528488    2.189639   -0.853088
     25          1           0        1.271601    1.674445    0.279842
     26          1           0        3.020740   -1.812102   -0.327738
     27          1           0        1.677519   -2.338016    0.685030
     28          1           0       -3.740243   -1.533534    0.877240
     29          1           0       -2.123318   -1.217392    1.498051
     30          1           0       -1.897021   -2.207268   -0.767911
     31          1           0       -3.017473   -1.011506   -1.420516
 ---------------------------------------------------------------------

 SCF Done:  E(RM062X) =  -617.508504329     A.U. after    1 cycles

 The electronic state is 1-A.
 Alpha  occ. eigenvalues --  -19.63014 -19.63004 -19.62900 -10.63145 -10.58217
 Alpha  occ. eigenvalues --  -10.57392 -10.57312 -10.57223 -10.52499 -10.52452
 Alpha  occ. eigenvalues --  -10.52353 -10.52288 -10.52178  -1.19765  -1.16123
 Alpha  occ. eigenvalues --   -1.12961  -0.90499  -0.89175  -0.86638  -0.84026
 Alpha  occ. eigenvalues --   -0.73744  -0.73452  -0.72311  -0.71280  -0.65699
 Alpha  occ. eigenvalues --   -0.62410  -0.59502  -0.57489  -0.57253  -0.54546
 Alpha  occ. eigenvalues --   -0.54206  -0.52813  -0.51598  -0.50226  -0.49147
 Alpha  occ. eigenvalues --   -0.47716  -0.46713  -0.45514  -0.45414  -0.44309
 Alpha  occ. eigenvalues --   -0.43047  -0.42663  -0.41258  -0.39353  -0.38300
 Alpha  occ. eigenvalues --   -0.37756  -0.37196  -0.35895  -0.35355  -0.33274
 Alpha  occ. eigenvalues --   -0.31764
 Alpha virt. eigenvalues --    0.00350   0.01312   0.01340   0.01553   0.02683
 Alpha virt. eigenvalues --    0.03007   0.03158   0.03672   0.03821   0.05156
 Alpha virt. eigenvalues --    0.05286   0.05375   0.05768   0.06231   0.07705

 Mulliken charges:
               1
     1  C   -0.551782
     2  C   -0.076007
     3  C    0.266123
     4  C   -0.408883
     5  C   -0.169591
     6  O   -0.327692
     7  C   -0.312134
     8  C   -0.114790
     9  C   -0.382230
    10  C   -0.339247
    11  O   -0.351375
    12  O   -0.301194
    13  C   -0.424401
    14  H    0.200185
    15  H    0.211847
    16  H    0.242626
    17  H    0.259278
    18  H    0.168823
    19  H    0.177921
    20  H    0.207529
    21  H    0.161263
    22  H    0.177979
    23  H    0.191365
    24  H    0.220066
    25  H    0.156115
    26  H    0.198800
    27  H    0.185426
    28  H    0.183491
    29  H    0.172481
    30  H    0.173639
    31  H    0.204369
 Sum of Mulliken charges =  -0.00000

 Dipole moment (field-independent basis, Debye):
    X=             -0.7531    Y=             -1.8010    Z=             -1.0482  Tot=              2.2157
 Quadrupole moment (field-independent basis, Debye-Ang):
   XX=            -68.4036   YY=            -78.8893   ZZ=            -81.1989
   XY=              3.0414   XZ=              6.1576   YZ=             -0.5516

  Exact polarizability: 180.129   2.038 172.427  -0.643  -0.245 170.314
 Approx polarizability: 145.329   1.544 141.159  -0.885   0.260 142.998

 ******    1 imaginary frequencies (negative Signs) ******

                      1                      2                      3
                      A                      A                      A
 Frequencies --    -34.4992                75.0054                80.6822
 Red. masses --      4.0104                 3.5997                 3.8492
 Frc consts  --      0.0028                 0.0119                 0.0148
 IR Inten    --      0.3249                 2.1782                 5.7485

                      4                      5                      6
                      A                      A                      A
 Frequencies --    147.7062               178.0506               233.3974
 Red. masses --      3.2416                 3.1123                 2.6224
 Frc consts  --      0.0417                 0.0581                 0.0842
 IR Inten    --      1.6251                 0.8585                15.9224

                      7                      8                      9
                      A                      A                      A
 Frequencies --    256.1309               285.0348               329.7201
 Red. masses --      4.0474                 2.3030                 1.9674
 Frc consts  --      0.1564                 0.1102                 0.1260
 IR Inten    --      2.1044                 8.4550                 2.0665

                     10                     11                     12
                      A                      A                      A
 Frequencies --    393.7806               407.5594               434.3777
 Red. masses --      2.0098                 2.6245                 3.1249
 Frc consts  --      0.1836                 0.2568                 0.3474
 IR Inten    --      6.6105                 5.0214                 4.0890

                     13                     14                     15
                      A                      A                      A
 Frequencies --    444.6571               492.0966               526.4984
 Red. masses --      2.3588                 3.9938                 2.1593
 Frc consts  --      0.2748                 0.5698                 0.3527
 IR Inten    --     11.0740                 8.6319                 2.6791

                     16                     17                     18
                      A                      A                      A
 Frequencies --    530.1507               589.4056               678.6688
 Red. masses --      2.2642                 3.3640                 2.7121
 Frc consts  --      0.3749                 0.6886                 0.7360
 IR Inten    --      2.2699                22.5947                13.3971

                     19                     20                     21
                      A                      A                      A
 Frequencies --    741.4134               832.1132               840.8315
 Red. masses --      2.5587                 1.7667                 2.6964
 Frc consts  --      0.8287                 0.7207                 1.1232
 IR Inten    --      1.9102                 2.3015                11.5107

                     22                     23                     24
                      A                      A                      A
 Frequencies --    855.3021               869.1463               880.7378
 Red. masses --      3.3871                 2.0914                 1.6270
 Frc consts  --      1.4599                 0.9308                 0.7436
 IR Inten    --      4.3927                 9.0089                14.2216

                     25                     26                     27
                      A                      A                      A
 Frequencies --    900.5972               902.4122               910.2569
 Red. masses --      2.4580                 2.4209                 2.3461
 Frc consts  --      1.1746                 1.1615                 1.1453
 IR Inten    --     40.7999                17.8989                72.9994

                     28                     29                     30
                      A                      A                      A
 Frequencies --    938.4968               948.4162              1008.3035
 Red. masses --      1.7724                 1.7035                 1.6998
 Frc consts  --      0.9198                 0.9028                 1.0182
 IR Inten    --      3.6176                15.7610                25.8663

                     31                     32                     33
                      A                      A                      A
 Frequencies --   1034.5030              1045.3527              1055.5608
 Red. masses --      2.4105                 2.0030                 2.0482
 Frc consts  --      1.5199                 1.2896                 1.3446
 IR Inten    --      5.4493                20.6461                19.2178

                     34                     35                     36
                      A                      A                      A
 Frequencies --   1064.6658              1066.2402              1080.0566
 Red. masses --      1.4899                 2.0086                 2.1934
 Frc consts  --      0.9950                 1.3454                 1.5075
 IR Inten    --     49.8946                43.6319               268.2832

                     37                     38                     39
                      A                      A                      A
 Frequencies --   1094.2150              1141.7785              1157.7021
 Red. masses --      1.7729                 2.6321                 2.4414
 Frc consts  --      1.2507                 2.0217                 1.9279
 IR Inten    --    103.9879               203.9327                28.9073

                     40                     41                     42
                      A                      A                      A
 Frequencies --   1176.9693              1192.9264              1211.7357
 Red. masses --      2.5775                 2.9550                 1.5147
 Frc consts  --      2.1037                 2.4776                 1.3103
 IR Inten    --     65.1631               168.3334                28.9481

                     43                     44                     45
                      A                      A                      A
 Frequencies --   1224.6522              1234.4093              1239.6433
 Red. masses --      1.4186                 1.7518                 1.7615
 Frc consts  --      1.2535                 1.5727                 1.5949
 IR Inten    --     75.8237                73.9799                48.3440

                     46                     47                     48
                      A                      A                      A
 Frequencies --   1284.5449              1298.1663              1322.2740
 Red. masses --      1.2140                 1.1537                 1.1594
 Frc consts  --      1.1803                 1.1455                 1.1943
 IR Inten    --     43.5303                 1.2338                15.8923

                     49                     50                     51
                      A                      A                      A
 Frequencies --   1334.6023              1355.6460              1358.8642
 Red. masses --      1.2395                 1.3719                 1.4314
 Frc consts  --      1.3008                 1.4855                 1.5573
 IR Inten    --     19.4210                16.0683                 3.3576

                     52                     53                     54
                      A                      A                      A
 Frequencies --   1366.3987              1380.9758              1385.6772
 Red. masses --      1.5646                 1.3833                 1.5078
 Frc consts  --      1.7211                 1.5544                 1.7057
 IR Inten    --      6.6776                23.8102                 8.6562

                     55                     56                     57
                      A                      A                      A
 Frequencies --   1390.5253              1395.8067              1405.1418
 Red. masses --      1.5522                 1.4799                 1.3951
 Frc consts  --      1.7683                 1.6988                 1.6229
 IR Inten    --      8.1793                56.9435                 5.8161

                     58                     59                     60
                      A                      A                      A
 Frequencies --   1406.5534              1428.0749              1435.0059
 Red. masses --      1.3382                 1.3800                 1.4314
 Frc consts  --      1.5599                 1.6582                 1.7367
 IR Inten    --      9.6768                 9.4195                25.1921

                     61                     62                     63
                      A                      A                      A
 Frequencies --   1442.5390              1468.8939              1470.1925
 Red. masses --      1.2910                 1.0892                 1.1127
 Frc consts  --      1.5828                 1.3846                 1.4170
 IR Inten    --      1.8421                 6.2868                 5.5931

                     64                     65                     66
                      A                      A                      A
 Frequencies --   1473.2383              1479.2590              1489.5255
 Red. masses --      1.0871                 1.1219                 1.1187
 Frc consts  --      1.3902                 1.4465                 1.4623
 IR Inten    --      9.7199                16.8922                16.7843

                     67                     68                     69
                      A                      A                      A
 Frequencies --   1495.2137              1502.9489              1503.7093
 Red. masses --      1.0867                 1.0948                 1.1012
 Frc consts  --      1.4314                 1.4570                 1.4670
 IR Inten    --      4.5474                 2.2383                10.9023

                     70                     71                     72
                      A                      A                      A
 Frequencies --   3030.4922              3040.9101              3062.0449
 Red. masses --      1.0700                 1.0691                 1.0679
 Frc consts  --      5.7896                 5.8248                 5.8991
 IR Inten    --     76.8011                57.9108                29.2999

                     73                     74                     75
                      A                      A                      A
 Frequencies --   3067.9650              3070.0370              3070.5192
 Red. masses --      1.0643                 1.0643                 1.0627
 Frc consts  --      5.9021                 5.9105                 5.9030
 IR Inten    --     50.6316                26.2574                50.3066

                     76                     77                     78
                      A                      A                      A
 Frequencies --   3076.8798              3079.4676              3087.6746
 Red. masses --      1.0617                 1.0662                 1.0835
 Frc consts  --      5.9221                 5.9574                 6.0863
 IR Inten    --     32.8022                 7.1096                24.9347

                     79                     80                     81
                      A                      A                      A
 Frequencies --   3093.0973              3116.2279              3119.2335
 Red. masses --      1.0837                 1.0980                 1.1003
 Frc consts  --      6.1085                 6.2821                 6.3075
 IR Inten    --    117.6410                36.6122                34.1363

                     82                     83                     84
                      A                      A                      A
 Frequencies --   3120.6188              3125.2266              3131.2728
 Red. masses --      1.1019                 1.1039                 1.1038
 Frc consts  --      6.3222                 6.3524                 6.3766
 IR Inten    --     68.1596                59.5272                44.4609

                     85                     86                     87
                      A                      A                      A
 Frequencies --   3137.4234              3140.2893              3146.1663
 Red. masses --      1.0959                 1.0990                 1.0960
 Frc consts  --      6.3557                 6.3856                 6.3917
 IR Inten    --     51.0095                53.1012                16.1820

 - Thermochemistry -
 -------------------
 Temperature   298.150 Kelvin.  Pressure   1.00000 Atm.
 Atom     1 has atomic number  6 and mass  12.00000

 Molecular mass:   186.12559 amu.
 Principal axes and moments of inertia in atomic units:
                           1         2         3
     Eigenvalues --  1152.858663699.316733904.81361
           X            0.99990   0.00818   0.01157
           Y           -0.00786   0.99960  -0.02702
           Z           -0.01178   0.02692   0.99957
 This molecule is an asymmetric top.
 Rotational symmetry number  1.
 Warning -- assumption of classical behavior for rotation
           may cause significant error
 Rotational temperatures (Kelvin)      0.07513     0.02341     0.02218
 Rotational constants (GHZ):           1.56545     0.48786     0.46218
    1 imaginary frequencies ignored.
 Zero-point vibrational energy     737621.5 (Joules/Mol)
                                  176.29577 (Kcal/Mol)
 Warning -- explicit consideration of  16 degrees of freedom as
           vibrations may cause significant error
 Vibrational temperatures:    107.92   116.08   212.52   256.18   335.81
          (Kelvin)            368.52   410.10   474.39   566.56   586.39
                              624.97   639.76   708.02   757.51   762.77
                              848.02   976.45  1066.73  1197.23  1209.77
                             1230.59  1250.51  1267.19  1295.76  1298.37
                             1309.66  1350.29  1364.56  1450.72  1488.42
                             1504.03  1518.72  1531.82  1534.08  1553.96
                             1574.33  1642.76  1665.68  1693.40  1716.35
                             1743.42  1762.00  1776.04  1783.57  1848.17
                             1867.77  1902.46  1920.20  1950.47  1955.10
                             1965.94  1986.92  1993.68  2000.66  2008.25
                             2021.69  2023.72  2054.68  2064.65  2075.49
                             2113.41  2115.28  2119.66  2128.32  2143.10
                             2151.28  2162.41  2163.50  4360.20  4375.19
                             4405.60  4414.12  4417.10  4417.79  4426.94
                             4430.67  4442.48  4450.28  4483.56  4487.88
                             4489.87  4496.50  4505.20  4514.05  4518.18
                             4526.63

 Zero-point correction=                           0.280945 (Hartree/Particle)
 Thermal correction to Energy=                    0.291696
 Thermal correction to Enthalpy=                  0.292640
 Thermal correction to Gibbs Free Energy=         0.244486
 Sum of electronic and zero-point Energies=           -617.227559
 Sum of electronic and thermal Energies=              -617.216808
 Sum of electronic and thermal Enthalpies=            -617.215864
 Sum of electronic and thermal Free Energies=         -617.264018

                     E (Thermal)             CV                S
                      KCal/Mol        Cal/Mol-Kelvin    Cal/Mol-Kelvin
 Total                  183.042             44.462            101.349
 Electronic               0.000              0.000              0.000
 Translational            0.889              2.981             41.570
 Rotational               0.889              2.981             31.188
 Vibrational            181.264             38.500             28.591
 Vibration     1          0.599              1.966              4.018
 Vibration     2          0.600              1.962              3.874
 Vibration     3          0.617              1.905              2.702
 Vibration     4          0.628              1.869              2.349
 Vibration     5          0.654              1.790              1.853
 Vibration     6          0.666              1.752              1.688
 Vibration     7          0.683              1.701              1.503
 Vibration     8          0.713              1.616              1.261
 Vibration     9          0.761              1.483              0.986
 Vibration    10          0.772              1.454              0.935
 Vibration    11          0.795              1.395              0.844
 Vibration    12          0.804              1.373              0.812
 Vibration    13          0.848              1.268              0.678
 Vibration    14          0.881              1.191              0.595
 Vibration    15          0.885              1.183              0.587
 Vibration    16          0.947              1.054              0.468

                           ! Non-Optimized Parameters !
 Normal termination of Gaussian 16 at Fri Mar  8 23:53:55 2019.
