 Gaussian 16, Revision B.01,
 Gaussian 16:  ES64L-G16RevB.01 20-Dec-2017

 ----------------------------------------------------------------------
 #M062X/6-311++G(2d,2p) opt=ModRedundant freq=noraman SCRF=(SMD,solvent
 =water)
 ----------------------------------------------------------------------

 -------------------------------
 4c1_a1_a4_4c1_PSI.inp_extract_1
 -------------------------------
 Symbolic Z-matrix:
 Charge =  0 Multiplicity = 1

 SCF Done:  E(RM062X) =  -617.506570865     A.U. after   12 cycles
 SCF Done:  E(RM062X) =  -617.508324644     A.U. after   10 cycles
 SCF Done:  E(RM062X) =  -617.508446790     A.U. after    9 cycles
 SCF Done:  E(RM062X) =  -617.508456313     A.U. after    9 cycles
 SCF Done:  E(RM062X) =  -617.508459553     A.U. after    8 cycles
 SCF Done:  E(RM062X) =  -617.508459708     A.U. after    6 cycles
 Optimization completed.
    -- Stationary point found.
 Normal termination of Gaussian 16 at Fri Mar  8 22:34:03 2019.

 ----------------------------------------------------------------------
 #N Geom=AllCheck Guess=TCheck SCRF=Check GenChk RM062X/6-311++G(2d,2p)
  Freq
 ----------------------------------------------------------------------

 Structure from the checkpoint file:  "4c1_a1_a4_4c1_PSI.inp_extract_1.chk"
 -------------------------------
 4c1_a1_a4_4c1_PSI.inp_extract_1
 -------------------------------
 Charge =  0 Multiplicity = 1

                         Standard orientation:
 ---------------------------------------------------------------------
 Center     Atomic      Atomic             Coordinates (Angstroms)
 Number     Number       Type             X           Y           Z
 ---------------------------------------------------------------------
      1          6           0        1.597292   -1.345802   -0.415723
      2          6           0       -1.170923    0.793424   -0.677659
      3          6           0        1.062604   -0.006608   -0.888327
      4          6           0       -3.288518   -0.680943    0.604943
      5          6           0        3.309422   -0.348361    0.854419
      6          8           0        2.201074   -1.248182    0.867432
      7          6           0       -2.639899    0.488764    1.340997
      8          6           0       -2.293666   -1.289705   -0.365031
      9          6           0       -2.084504    1.480612    0.321043
     10          6           0        2.867794    1.057439    0.486439
     11          8           0       -1.800822   -0.314824   -1.293686
     12          8           0        0.004071    0.400220   -0.010371
     13          6           0        2.166832    1.044039   -0.871102
     14          1           0        2.330601   -1.714030   -1.141711
     15          1           0        0.788521   -2.069097   -0.329775
     16          1           0       -0.916485    1.460503   -1.503937
     17          1           0        0.667908   -0.135164   -1.897193
     18          1           0       -4.161859   -0.330791    0.049272
     19          1           0       -3.622628   -1.450860    1.300976
     20          1           0        3.742549   -0.383392    1.851843
     21          1           0        4.053135   -0.713318    0.136365
     22          1           0       -1.832325    0.116888    1.975363
     23          1           0       -3.359238    0.986174    1.990570
     24          1           0       -2.748947   -2.066812   -0.974913
     25          1           0       -1.453352   -1.727296    0.179930
     26          1           0       -2.906375    1.925104   -0.243105
     27          1           0       -1.532584    2.288539    0.799973
     28          1           0        3.736958    1.714988    0.465667
     29          1           0        2.190413    1.429605    1.257161
     30          1           0        1.742832    2.019923   -1.110310
     31          1           0        2.887699    0.794170   -1.653162
 ---------------------------------------------------------------------

 SCF Done:  E(RM062X) =  -617.508459708     A.U. after    1 cycles

 The electronic state is 1-A.
 Alpha  occ. eigenvalues --  -19.62996 -19.62978 -19.62894 -10.63140 -10.58172
 Alpha  occ. eigenvalues --  -10.57444 -10.57304 -10.57210 -10.52492 -10.52452
 Alpha  occ. eigenvalues --  -10.52349 -10.52271 -10.52177  -1.19765  -1.16147
 Alpha  occ. eigenvalues --   -1.12946  -0.90444  -0.89119  -0.86704  -0.84028
 Alpha  occ. eigenvalues --   -0.73831  -0.73387  -0.72277  -0.71235  -0.65708
 Alpha  occ. eigenvalues --   -0.62326  -0.59369  -0.57671  -0.57186  -0.54675
 Alpha  occ. eigenvalues --   -0.54032  -0.52838  -0.51492  -0.50534  -0.49122
 Alpha  occ. eigenvalues --   -0.47634  -0.46620  -0.45565  -0.45352  -0.44346
 Alpha  occ. eigenvalues --   -0.42882  -0.42633  -0.41384  -0.39373  -0.38476
 Alpha  occ. eigenvalues --   -0.37769  -0.37240  -0.35771  -0.35203  -0.33276
 Alpha  occ. eigenvalues --   -0.31788
 Alpha virt. eigenvalues --    0.00344   0.01308   0.01364   0.01507   0.02687
 Alpha virt. eigenvalues --    0.02986   0.03151   0.03726   0.03815   0.05138
 Alpha virt. eigenvalues --    0.05245   0.05326   0.05858   0.06226   0.07606

 Mulliken charges:
               1
     1  C   -0.490463
     2  C   -0.053046
     3  C    0.194560
     4  C   -0.384760
     5  C   -0.192315
     6  O   -0.342095
     7  C   -0.324213
     8  C   -0.129932
     9  C   -0.382077
    10  C   -0.333253
    11  O   -0.345519
    12  O   -0.300181
    13  C   -0.401706
    14  H    0.197308
    15  H    0.201554
    16  H    0.254561
    17  H    0.274401
    18  H    0.168897
    19  H    0.177714
    20  H    0.207973
    21  H    0.161015
    22  H    0.183799
    23  H    0.189929
    24  H    0.217144
    25  H    0.143602
    26  H    0.195651
    27  H    0.182839
    28  H    0.180798
    29  H    0.173342
    30  H    0.165381
    31  H    0.209093
 Sum of Mulliken charges =  -0.00000

 Dipole moment (field-independent basis, Debye):
    X=              0.5767    Y=              1.4955    Z=             -1.3772  Tot=              2.1132
 Quadrupole moment (field-independent basis, Debye-Ang):
   XX=            -69.0468   YY=            -77.5561   ZZ=            -82.7786
   XY=              3.4345   XZ=             -7.4273   YZ=              1.6650

  Exact polarizability: 180.691   2.576 172.690   0.431   0.823 169.396
 Approx polarizability: 145.464   1.759 141.367   0.712   0.073 142.503

 ******    1 imaginary frequencies (negative Signs) ******

                      1                      2                      3
                      A                      A                      A
 Frequencies --    -22.9872                72.8944                75.8521
 Red. masses --      3.9651                 3.9179                 3.5972
 Frc consts  --      0.0012                 0.0123                 0.0122
 IR Inten    --      0.3317                 5.9651                 2.8111

                      4                      5                      6
                      A                      A                      A
 Frequencies --    139.7591               173.3220               237.5895
 Red. masses --      3.2480                 3.2448                 2.6135
 Frc consts  --      0.0374                 0.0574                 0.0869
 IR Inten    --      1.0135                 1.0251                16.3771

                      7                      8                      9
                      A                      A                      A
 Frequencies --    248.2170               285.8359               334.0806
 Red. masses --      3.5989                 2.2605                 1.9801
 Frc consts  --      0.1306                 0.1088                 0.1302
 IR Inten    --      1.1748                 7.9862                 2.5091

                     10                     11                     12
                      A                      A                      A
 Frequencies --    392.9013               412.1564               435.6078
 Red. masses --      1.9932                 2.7582                 3.4562
 Frc consts  --      0.1813                 0.2761                 0.3864
 IR Inten    --      6.5547                 3.4993                 7.4927

                     13                     14                     15
                      A                      A                      A
 Frequencies --    441.5279               501.4524               525.6222
 Red. masses --      2.1396                 4.1484                 2.1344
 Frc consts  --      0.2458                 0.6146                 0.3474
 IR Inten    --      9.2560                11.3479                 0.5166

                     16                     17                     18
                      A                      A                      A
 Frequencies --    529.3755               581.2496               673.7698
 Red. masses --      2.3900                 3.3623                 2.5882
 Frc consts  --      0.3946                 0.6693                 0.6923
 IR Inten    --      5.2155                21.9071                 9.2811

                     19                     20                     21
                      A                      A                      A
 Frequencies --    745.6261               831.4217               841.6618
 Red. masses --      2.5498                 1.6834                 2.8794
 Frc consts  --      0.8352                 0.6856                 1.2018
 IR Inten    --      0.6919                 2.2098                11.0828

                     22                     23                     24
                      A                      A                      A
 Frequencies --    854.8312               869.5092               878.8202
 Red. masses --      3.3408                 1.9311                 1.7543
 Frc consts  --      1.4383                 0.8602                 0.7983
 IR Inten    --      1.1551                10.0031                13.4196

                     25                     26                     27
                      A                      A                      A
 Frequencies --    900.9589               903.1804               911.9534
 Red. masses --      2.4035                 2.3726                 2.3862
 Frc consts  --      1.1495                 1.1403                 1.1692
 IR Inten    --     30.6850                 5.4486                91.1184

                     28                     29                     30
                      A                      A                      A
 Frequencies --    938.6183               948.6649              1011.4901
 Red. masses --      1.8149                 1.6728                 1.7221
 Frc consts  --      0.9421                 0.8870                 1.0381
 IR Inten    --      2.7402                15.9700                32.2605

                     31                     32                     33
                      A                      A                      A
 Frequencies --   1034.1048              1044.4523              1056.4232
 Red. masses --      2.4106                 2.0804                 1.9934
 Frc consts  --      1.5188                 1.3371                 1.3107
 IR Inten    --      5.8067                18.2226                28.6493

                     34                     35                     36
                      A                      A                      A
 Frequencies --   1065.1658              1067.4552              1081.9157
 Red. masses --      1.5959                 1.7934                 2.0435
 Frc consts  --      1.0668                 1.2040                 1.4094
 IR Inten    --     30.1989                35.6117               251.6194

                     37                     38                     39
                      A                      A                      A
 Frequencies --   1091.4363              1140.9208              1160.7682
 Red. masses --      1.8551                 2.6517                 2.4052
 Frc consts  --      1.3020                 2.0337                 1.9094
 IR Inten    --    128.7357               225.1967                28.2242

                     40                     41                     42
                      A                      A                      A
 Frequencies --   1178.4989              1193.5919              1213.1972
 Red. masses --      2.4875                 3.0795                 1.5163
 Frc consts  --      2.0355                 2.5849                 1.3149
 IR Inten    --     54.3651               158.1566                25.9607

                     43                     44                     45
                      A                      A                      A
 Frequencies --   1224.0112              1236.5554              1240.7393
 Red. masses --      1.3824                 1.7983                 1.8215
 Frc consts  --      1.2203                 1.6201                 1.6521
 IR Inten    --     53.3483                38.1654               116.1243

                     46                     47                     48
                      A                      A                      A
 Frequencies --   1283.6642              1299.4258              1318.7266
 Red. masses --      1.2187                 1.1537                 1.1561
 Frc consts  --      1.1832                 1.1477                 1.1846
 IR Inten    --     41.3964                 2.5259                18.9857

                     49                     50                     51
                      A                      A                      A
 Frequencies --   1334.5866              1354.2552              1357.9585
 Red. masses --      1.2472                 1.3947                 1.3904
 Frc consts  --      1.3089                 1.5071                 1.5107
 IR Inten    --     19.2198                19.2958                 3.5766

                     52                     53                     54
                      A                      A                      A
 Frequencies --   1367.1041              1383.1952              1388.0748
 Red. masses --      1.5323                 1.4345                 1.5064
 Frc consts  --      1.6873                 1.6170                 1.7101
 IR Inten    --      6.4392                 8.6494                14.6867

                     55                     56                     57
                      A                      A                      A
 Frequencies --   1389.5063              1394.4780              1405.8687
 Red. masses --      1.5182                 1.4675                 1.3210
 Frc consts  --      1.7270                 1.6814                 1.5383
 IR Inten    --      8.8148                53.2431                 3.3102

                     58                     59                     60
                      A                      A                      A
 Frequencies --   1406.6441              1429.8129              1435.6085
 Red. masses --      1.4245                 1.3653                 1.4827
 Frc consts  --      1.6607                 1.6445                 1.8004
 IR Inten    --     16.1397                 9.1921                22.9466

                     61                     62                     63
                      A                      A                      A
 Frequencies --   1440.3126              1468.2348              1469.6340
 Red. masses --      1.3022                 1.0967                 1.1143
 Frc consts  --      1.5917                 1.3930                 1.4180
 IR Inten    --      5.7031                 7.1165                 7.2117

                     64                     65                     66
                      A                      A                      A
 Frequencies --   1472.4718              1479.6461              1489.5104
 Red. masses --      1.0870                 1.1149                 1.1205
 Frc consts  --      1.3885                 1.4382                 1.4647
 IR Inten    --      9.6674                15.4095                18.1151

                     67                     68                     69
                      A                      A                      A
 Frequencies --   1491.6517              1503.8989              1505.7229
 Red. masses --      1.0904                 1.0995                 1.0935
 Frc consts  --      1.4294                 1.4652                 1.4608
 IR Inten    --      4.0148                 6.1759                 5.7272

                     70                     71                     72
                      A                      A                      A
 Frequencies --   3029.4590              3041.5984              3062.8601
 Red. masses --      1.0699                 1.0684                 1.0678
 Frc consts  --      5.7854                 5.8234                 5.9018
 IR Inten    --     76.2644                57.6399                27.3750

                     73                     74                     75
                      A                      A                      A
 Frequencies --   3068.6627              3069.5341              3071.0144
 Red. masses --      1.0625                 1.0648                 1.0626
 Frc consts  --      5.8949                 5.9112                 5.9044
 IR Inten    --     33.0678                42.6295                62.5548

                     76                     77                     78
                      A                      A                      A
 Frequencies --   3076.8140              3077.0665              3086.3471
 Red. masses --      1.0732                 1.0625                 1.0747
 Frc consts  --      5.9862                 5.9273                 6.0312
 IR Inten    --      6.7883                29.6236                70.2075

                     79                     80                     81
                      A                      A                      A
 Frequencies --   3099.8195              3114.6545              3116.8435
 Red. masses --      1.0856                 1.1015                 1.0974
 Frc consts  --      6.1462                 6.2956                 6.2811
 IR Inten    --     54.4659                35.9579                35.0384

                     82                     83                     84
                      A                      A                      A
 Frequencies --   3120.7845              3124.2290              3132.0367
 Red. masses --      1.1024                 1.1035                 1.1034
 Frc consts  --      6.3256                 6.3459                 6.3775
 IR Inten    --     71.2304                56.7460                44.8441

                     85                     86                     87
                      A                      A                      A
 Frequencies --   3136.2618              3139.4564              3142.0110
 Red. masses --      1.0959                 1.0975                 1.0991
 Frc consts  --      6.3512                 6.3734                 6.3928
 IR Inten    --     52.6445                52.0718                15.9823

 - Thermochemistry -
 -------------------
 Temperature   298.150 Kelvin.  Pressure   1.00000 Atm.
 Atom     1 has atomic number  6 and mass  12.00000

 Molecular mass:   186.12559 amu.
 Principal axes and moments of inertia in atomic units:
                           1         2         3
     Eigenvalues --  1119.622083831.315964000.58910
           X            0.99988   0.00869  -0.01298
           Y           -0.00808   0.99889   0.04644
           Z            0.01337  -0.04633   0.99884
 This molecule is an asymmetric top.
 Rotational symmetry number  1.
 Warning -- assumption of classical behavior for rotation
           may cause significant error
 Rotational temperatures (Kelvin)      0.07736     0.02261     0.02165
 Rotational constants (GHZ):           1.61192     0.47105     0.45112
    1 imaginary frequencies ignored.
 Zero-point vibrational energy     737537.4 (Joules/Mol)
                                  176.27568 (Kcal/Mol)
 Warning -- explicit consideration of  16 degrees of freedom as
           vibrations may cause significant error
 Vibrational temperatures:    104.88   109.13   201.08   249.37   341.84
          (Kelvin)            357.13   411.25   480.67   565.30   593.00
                              626.74   635.26   721.48   756.25   761.65
                              836.29   969.40  1072.79  1196.23  1210.96
                             1229.91  1251.03  1264.43  1296.28  1299.48
                             1312.10  1350.46  1364.92  1455.31  1487.85
                             1502.73  1519.96  1532.54  1535.83  1556.64
                             1570.33  1641.53  1670.09  1695.60  1717.31
                             1745.52  1761.08  1779.13  1785.15  1846.91
                             1869.58  1897.35  1920.17  1948.47  1953.80
                             1966.96  1990.11  1997.13  1999.19  2006.34
                             2022.73  2023.85  2057.18  2065.52  2072.29
                             2112.46  2114.48  2118.56  2128.88  2143.07
                             2146.15  2163.78  2166.40  4358.72  4376.18
                             4406.77  4415.12  4416.37  4418.50  4426.85
                             4427.21  4440.57  4459.95  4481.29  4484.44
                             4490.11  4495.07  4506.30  4512.38  4516.98
                             4520.65

 Zero-point correction=                           0.280913 (Hartree/Particle)
 Thermal correction to Energy=                    0.291695
 Thermal correction to Enthalpy=                  0.292639
 Thermal correction to Gibbs Free Energy=         0.244320
 Sum of electronic and zero-point Energies=           -617.227547
 Sum of electronic and thermal Energies=              -617.216765
 Sum of electronic and thermal Enthalpies=            -617.215821
 Sum of electronic and thermal Free Energies=         -617.264140

                     E (Thermal)             CV                S
                      KCal/Mol        Cal/Mol-Kelvin    Cal/Mol-Kelvin
 Total                  183.041             44.466            101.696
 Electronic               0.000              0.000              0.000
 Translational            0.889              2.981             41.570
 Rotational               0.889              2.981             31.218
 Vibrational            181.264             38.504             28.908
 Vibration     1          0.599              1.967              4.074
 Vibration     2          0.599              1.965              3.995
 Vibration     3          0.615              1.914              2.807
 Vibration     4          0.627              1.875              2.399
 Vibration     5          0.656              1.783              1.821
 Vibration     6          0.662              1.766              1.743
 Vibration     7          0.684              1.700              1.498
 Vibration     8          0.716              1.607              1.240
 Vibration     9          0.760              1.485              0.989
 Vibration    10          0.776              1.444              0.919
 Vibration    11          0.796              1.393              0.841
 Vibration    12          0.801              1.380              0.822
 Vibration    13          0.857              1.247              0.655
 Vibration    14          0.881              1.193              0.597
 Vibration    15          0.884              1.185              0.589
 Vibration    16          0.938              1.072              0.483

 Optimization completed.
    -- Stationary point found.
 Normal termination of Gaussian 16 at Fri Mar  8 23:39:42 2019.
