 Gaussian 16, Revision B.01,
 Gaussian 16:  ES64L-G16RevB.01 20-Dec-2017

 ----------------------------------------------------------------------
 #M062X/6-311++G(2d,2p) opt=ModRedundant freq=noraman SCRF=(SMD,solvent
 =water)
 ----------------------------------------------------------------------

 --------------------------------
 4c1_a1_a4_4c1_PSI.inp_extract_18
 --------------------------------
 Symbolic Z-matrix:
 Charge =  0 Multiplicity = 1

 SCF Done:  E(RM062X) =  -617.499194822     A.U. after   13 cycles
 SCF Done:  E(RM062X) =  -617.500074312     A.U. after   11 cycles
 SCF Done:  E(RM062X) =  -617.500765820     A.U. after   11 cycles
 SCF Done:  E(RM062X) =  -617.501088126     A.U. after   10 cycles
 SCF Done:  E(RM062X) =  -617.501121877     A.U. after   10 cycles
 SCF Done:  E(RM062X) =  -617.501125078     A.U. after    8 cycles
 SCF Done:  E(RM062X) =  -617.501125720     A.U. after    7 cycles
 Optimization completed.
    -- Stationary point found.
 Normal termination of Gaussian 16 at Sat Mar  9 03:13:59 2019.

 ----------------------------------------------------------------------
 #N Geom=AllCheck Guess=TCheck SCRF=Check GenChk RM062X/6-311++G(2d,2p)
  Freq
 ----------------------------------------------------------------------

 Structure from the checkpoint file:  "4c1_a1_a4_4c1_PSI.inp_extract_18.chk"
 --------------------------------
 4c1_a1_a4_4c1_PSI.inp_extract_18
 --------------------------------
 Charge =  0 Multiplicity = 1

                         Standard orientation:
 ---------------------------------------------------------------------
 Center     Atomic      Atomic             Coordinates (Angstroms)
 Number     Number       Type             X           Y           Z
 ---------------------------------------------------------------------
      1          6           0       -2.096959   -0.820400    1.239668
      2          6           0        0.813056    0.065470   -0.606590
      3          6           0       -1.047685    0.251315    1.010896
      4          6           0        3.592052    0.023752    0.168473
      5          6           0       -3.390114   -0.209712   -0.613881
      6          8           0       -2.680639   -1.269665    0.026278
      7          6           0        2.871817   -1.293599   -0.109129
      8          6           0        2.593452    1.070463    0.626183
      9          6           0        1.728454   -1.047400   -1.091042
     10          6           0       -2.439205    0.893202   -1.040988
     11          8           0        1.545100    1.251660   -0.333164
     12          8           0        0.150569   -0.393864    0.542027
     13          6           0       -1.612240    1.385233    0.152186
     14          1           0       -2.877369   -0.418380    1.895058
     15          1           0       -1.645730   -1.687376    1.718514
     16          1           0        0.110320    0.350333   -1.383324
     17          1           0       -0.792815    0.668917    1.988224
     18          1           0        4.083716    0.375039   -0.742072
     19          1           0        4.357931   -0.097411    0.935162
     20          1           0       -3.897937   -0.649220   -1.469697
     21          1           0       -4.144682    0.178488    0.079617
     22          1           0        2.477922   -1.697777    0.825758
     23          1           0        3.560361   -2.033145   -0.516530
     24          1           0        3.058999    2.047333    0.737249
     25          1           0        2.157596    0.786864    1.588052
     26          1           0        2.134111   -0.736307   -2.055489
     27          1           0        1.132112   -1.944668   -1.252642
     28          1           0       -3.013770    1.720069   -1.459660
     29          1           0       -1.802750    0.508416   -1.837958
     30          1           0       -0.822476    2.064688   -0.161675
     31          1           0       -2.271547    1.949138    0.815636
 ---------------------------------------------------------------------

 SCF Done:  E(RM062X) =  -617.501125720     A.U. after    1 cycles

 The electronic state is 1-A.
 Alpha  occ. eigenvalues --  -19.63002 -19.62899 -19.62728 -10.62981 -10.58523
 Alpha  occ. eigenvalues --  -10.57470 -10.57343 -10.57156 -10.52913 -10.52416
 Alpha  occ. eigenvalues --  -10.52377 -10.52293 -10.52138  -1.19372  -1.16272
 Alpha  occ. eigenvalues --   -1.12716  -0.90337  -0.88953  -0.87151  -0.84074
 Alpha  occ. eigenvalues --   -0.74715  -0.73578  -0.72208  -0.70560  -0.66023
 Alpha  occ. eigenvalues --   -0.61629  -0.59440  -0.58460  -0.56250  -0.54793
 Alpha  occ. eigenvalues --   -0.53441  -0.52997  -0.52590  -0.50649  -0.49152
 Alpha  occ. eigenvalues --   -0.47246  -0.45959  -0.45870  -0.45228  -0.44795
 Alpha  occ. eigenvalues --   -0.43364  -0.42442  -0.40320  -0.39890  -0.38600
 Alpha  occ. eigenvalues --   -0.38174  -0.37271  -0.35461  -0.34734  -0.33196
 Alpha  occ. eigenvalues --   -0.31767
 Alpha virt. eigenvalues --    0.00300   0.01277   0.01331   0.01600   0.02737
 Alpha virt. eigenvalues --    0.02919   0.03116   0.03814   0.03929   0.05032
 Alpha virt. eigenvalues --    0.05180   0.05348   0.05888   0.06269   0.07391

 Mulliken charges:
               1
     1  C   -0.411294
     2  C   -0.079388
     3  C    0.080162
     4  C   -0.401709
     5  C   -0.242829
     6  O   -0.347308
     7  C   -0.318918
     8  C   -0.112066
     9  C   -0.494818
    10  C   -0.305404
    11  O   -0.328963
    12  O   -0.350398
    13  C   -0.298428
    14  H    0.194413
    15  H    0.208018
    16  H    0.365401
    17  H    0.237531
    18  H    0.164677
    19  H    0.180859
    20  H    0.209324
    21  H    0.161183
    22  H    0.178661
    23  H    0.189072
    24  H    0.209737
    25  H    0.151843
    26  H    0.193701
    27  H    0.189744
    28  H    0.177803
    29  H    0.136335
    30  H    0.210606
    31  H    0.252452
 Sum of Mulliken charges =  -0.00000

 Dipole moment (field-independent basis, Debye):
    X=             -0.3985    Y=              1.7954    Z=              0.6280  Tot=              1.9433
 Quadrupole moment (field-independent basis, Debye-Ang):
   XX=            -70.0984   YY=            -85.5558   ZZ=            -74.9139
   XY=             -8.7703   XZ=              0.2833   YZ=              1.9327

  Exact polarizability: 181.245  -0.612 169.085   1.678   0.654 172.517
 Approx polarizability: 144.935  -0.624 141.022   0.891  -0.127 143.944

 ******    1 imaginary frequencies (negative Signs) ******

                      1                      2                      3
                      A                      A                      A
 Frequencies --    -57.0514                54.9065                99.2756
 Red. masses --      3.9872                 4.1219                 3.6678
 Frc consts  --      0.0076                 0.0073                 0.0213
 IR Inten    --      3.1173                 4.7734                 6.3707

                      4                      5                      6
                      A                      A                      A
 Frequencies --    131.6186               190.4936               216.1128
 Red. masses --      3.9108                 2.9940                 2.9501
 Frc consts  --      0.0399                 0.0640                 0.0812
 IR Inten    --      0.8320                 1.9296                 9.9699

                      7                      8                      9
                      A                      A                      A
 Frequencies --    255.6282               278.3694               346.3526
 Red. masses --      3.0758                 2.0709                 2.2950
 Frc consts  --      0.1184                 0.0945                 0.1622
 IR Inten    --      0.4313                 3.2285                 1.8171

                     10                     11                     12
                      A                      A                      A
 Frequencies --    381.7465               406.1210               430.4402
 Red. masses --      2.1087                 2.3181                 2.9213
 Frc consts  --      0.1811                 0.2253                 0.3189
 IR Inten    --      2.7557                15.0377                25.2589

                     13                     14                     15
                      A                      A                      A
 Frequencies --    444.2379               485.6837               520.6145
 Red. masses --      2.6448                 3.7005                 2.2587
 Frc consts  --      0.3075                 0.5143                 0.3607
 IR Inten    --      0.7103                 5.9506                 7.4656

                     16                     17                     18
                      A                      A                      A
 Frequencies --    535.9214               596.3899               673.5522
 Red. masses --      1.9862                 3.4629                 2.9219
 Frc consts  --      0.3361                 0.7257                 0.7810
 IR Inten    --      1.0016                13.5553                 6.5382

                     19                     20                     21
                      A                      A                      A
 Frequencies --    742.7739               805.0261               834.1921
 Red. masses --      2.4303                 3.1076                 1.5530
 Frc consts  --      0.7900                 1.1866                 0.6367
 IR Inten    --      8.5648                10.1145                 1.2176

                     22                     23                     24
                      A                      A                      A
 Frequencies --    840.0464               864.1648               872.5281
 Red. masses --      3.4205                 1.7057                 2.4316
 Frc consts  --      1.4221                 0.7505                 1.0907
 IR Inten    --     24.2212                10.3970                12.0374

                     25                     26                     27
                      A                      A                      A
 Frequencies --    892.5567               906.8450               914.2877
 Red. masses --      2.5754                 2.6707                 2.2881
 Frc consts  --      1.2088                 1.2940                 1.1269
 IR Inten    --     30.1344                43.2713                36.1452

                     28                     29                     30
                      A                      A                      A
 Frequencies --    926.2397               961.2922               987.6361
 Red. masses --      1.8221                 1.7054                 2.0776
 Frc consts  --      0.9210                 0.9285                 1.1940
 IR Inten    --      9.5868                20.0668                46.0717

                     31                     32                     33
                      A                      A                      A
 Frequencies --   1031.6181              1040.9005              1053.3426
 Red. masses --      2.0332                 2.2340                 1.9866
 Frc consts  --      1.2749                 1.4261                 1.2987
 IR Inten    --     54.4761                22.1031               178.5187

                     34                     35                     36
                      A                      A                      A
 Frequencies --   1062.8993              1064.4405              1080.8201
 Red. masses --      1.8220                 1.7312                 2.2741
 Frc consts  --      1.2128                 1.1557                 1.5652
 IR Inten    --     18.0206                37.1366               185.9739

                     37                     38                     39
                      A                      A                      A
 Frequencies --   1099.8266              1145.8551              1160.2801
 Red. masses --      1.5426                 2.6000                 2.5053
 Frc consts  --      1.0994                 2.0113                 1.9871
 IR Inten    --     28.3602               137.3097                 4.4851

                     40                     41                     42
                      A                      A                      A
 Frequencies --   1169.2467              1197.4450              1207.2771
 Red. masses --      2.3631                 2.6791                 1.5382
 Frc consts  --      1.9035                 2.2633                 1.3209
 IR Inten    --     82.6537               152.6047                67.3227

                     43                     44                     45
                      A                      A                      A
 Frequencies --   1229.1906              1240.2388              1245.2907
 Red. masses --      1.5829                 1.4286                 1.8511
 Frc consts  --      1.4091                 1.2947                 1.6913
 IR Inten    --     62.0123               101.8702                53.4000

                     46                     47                     48
                      A                      A                      A
 Frequencies --   1282.2379              1312.2003              1314.6194
 Red. masses --      1.2254                 1.1452                 1.1615
 Frc consts  --      1.1871                 1.1618                 1.1827
 IR Inten    --     31.6998                24.7780                21.8038

                     49                     50                     51
                      A                      A                      A
 Frequencies --   1343.0308              1357.6162              1368.4762
 Red. masses --      1.2594                 1.3411                 1.3848
 Frc consts  --      1.3384                 1.4564                 1.5280
 IR Inten    --     31.9250                 3.7974                 4.9819

                     52                     53                     54
                      A                      A                      A
 Frequencies --   1371.4223              1383.3352              1388.3470
 Red. masses --      1.5456                 1.4692                 1.3617
 Frc consts  --      1.7127                 1.6565                 1.5464
 IR Inten    --      8.7923                 1.2538                 6.8514

                     55                     56                     57
                      A                      A                      A
 Frequencies --   1391.5645              1396.4301              1405.7381
 Red. masses --      1.6819                 1.4083                 1.4015
 Frc consts  --      1.9189                 1.6180                 1.6318
 IR Inten    --     18.0374                 6.1509                 4.3790

                     58                     59                     60
                      A                      A                      A
 Frequencies --   1412.1735              1420.4882              1430.3871
 Red. masses --      1.3375                 1.3621                 1.3364
 Frc consts  --      1.5715                 1.6194                 1.6110
 IR Inten    --     15.5457                15.7744                24.5934

                     61                     62                     63
                      A                      A                      A
 Frequencies --   1433.0217              1470.1282              1473.0531
 Red. masses --      1.3586                 1.1076                 1.0871
 Frc consts  --      1.6438                 1.4104                 1.3899
 IR Inten    --     16.3778                 5.6816                 8.7284

                     64                     65                     66
                      A                      A                      A
 Frequencies --   1473.8983              1482.0872              1488.7801
 Red. masses --      1.0892                 1.1108                 1.0868
 Frc consts  --      1.3940                 1.4376                 1.4193
 IR Inten    --     11.9166                12.9654                 4.3645

                     67                     68                     69
                      A                      A                      A
 Frequencies --   1490.2355              1502.4429              1508.3647
 Red. masses --      1.1110                 1.0933                 1.1019
 Frc consts  --      1.4537                 1.4540                 1.4771
 IR Inten    --     16.1694                 2.8951                 8.0439

                     70                     71                     72
                      A                      A                      A
 Frequencies --   3034.2046              3043.2695              3057.8601
 Red. masses --      1.0696                 1.0685                 1.0703
 Frc consts  --      5.8019                 5.8303                 5.8966
 IR Inten    --     69.8128                35.6545                70.2518

                     73                     74                     75
                      A                      A                      A
 Frequencies --   3061.4166              3065.1161              3072.5261
 Red. masses --      1.0809                 1.0636                 1.0633
 Frc consts  --      5.9689                 5.8876                 5.9142
 IR Inten    --     59.2127                38.4561                38.2384

                     76                     77                     78
                      A                      A                      A
 Frequencies --   3080.6487              3080.8419              3084.5458
 Red. masses --      1.0644                 1.0695                 1.0606
 Frc consts  --      5.9514                 5.9810                 5.9455
 IR Inten    --     15.3422                58.3450                29.1891

                     79                     80                     81
                      A                      A                      A
 Frequencies --   3115.3194              3120.2830              3123.7194
 Red. masses --      1.0978                 1.1024                 1.1014
 Frc consts  --      6.2776                 6.3235                 6.3321
 IR Inten    --     45.7931                68.4811                53.6178

                     82                     83                     84
                      A                      A                      A
 Frequencies --   3131.3268              3136.7639              3138.3184
 Red. masses --      1.1035                 1.0967                 1.0971
 Frc consts  --      6.3748                 6.3575                 6.3666
 IR Inten    --     46.3426                39.2687                33.2993

                     85                     86                     87
                      A                      A                      A
 Frequencies --   3139.2213              3143.3784              3165.0829
 Red. masses --      1.0982                 1.0969                 1.0863
 Frc consts  --      6.3765                 6.3857                 6.4118
 IR Inten    --     46.0220                18.1860                43.7960

 - Thermochemistry -
 -------------------
 Temperature   298.150 Kelvin.  Pressure   1.00000 Atm.
 Atom     1 has atomic number  6 and mass  12.00000

 Molecular mass:   186.12559 amu.
 Principal axes and moments of inertia in atomic units:
                           1         2         3
     Eigenvalues --  1018.222573882.017504106.88191
           X            0.99987  -0.01624   0.00243
           Y            0.01616   0.99943   0.02957
           Z           -0.00291  -0.02952   0.99956
 This molecule is an asymmetric top.
 Rotational symmetry number  1.
 Warning -- assumption of classical behavior for rotation
           may cause significant error
 Rotational temperatures (Kelvin)      0.08506     0.02231     0.02109
 Rotational constants (GHZ):           1.77244     0.46490     0.43944
    1 imaginary frequencies ignored.
 Zero-point vibrational energy     737603.3 (Joules/Mol)
                                  176.29143 (Kcal/Mol)
 Warning -- explicit consideration of  16 degrees of freedom as
           vibrations may cause significant error
 Vibrational temperatures:     79.00   142.84   189.37   274.08   310.94
          (Kelvin)            367.79   400.51   498.32   549.25   584.32
                              619.31   639.16   698.79   749.05   771.07
                              858.07   969.09  1068.69  1158.25  1200.22
                             1208.64  1243.34  1255.37  1284.19  1304.75
                             1315.46  1332.65  1383.09  1420.99  1484.27
                             1497.62  1515.53  1529.28  1531.49  1555.06
                             1582.41  1648.63  1669.38  1682.29  1722.86
                             1737.00  1768.53  1784.43  1791.70  1844.85
                             1887.96  1891.44  1932.32  1953.31  1968.93
                             1973.17  1990.31  1997.52  2002.15  2009.15
                             2022.54  2031.80  2043.77  2058.01  2061.80
                             2115.19  2119.39  2120.61  2132.39  2142.02
                             2144.12  2161.68  2170.20  4365.54  4378.59
                             4399.58  4404.70  4410.02  4420.68  4432.37
                             4432.64  4437.97  4482.25  4489.39  4494.34
                             4505.28  4513.10  4515.34  4516.64  4522.62
                             4553.85

 Zero-point correction=                           0.280938 (Hartree/Particle)
 Thermal correction to Energy=                    0.291756
 Thermal correction to Enthalpy=                  0.292700
 Thermal correction to Gibbs Free Energy=         0.244305
 Sum of electronic and zero-point Energies=           -617.220187
 Sum of electronic and thermal Energies=              -617.209370
 Sum of electronic and thermal Enthalpies=            -617.208425
 Sum of electronic and thermal Free Energies=         -617.256821

                     E (Thermal)             CV                S
                      KCal/Mol        Cal/Mol-Kelvin    Cal/Mol-Kelvin
 Total                  183.080             44.615            101.857
 Electronic               0.000              0.000              0.000
 Translational            0.889              2.981             41.570
 Rotational               0.889              2.981             31.163
 Vibrational            181.302             38.654             29.124
 Vibration     1          0.596              1.976              4.632
 Vibration     2          0.604              1.950              3.468
 Vibration     3          0.612              1.922              2.922
 Vibration     4          0.634              1.853              2.223
 Vibration     5          0.645              1.816              1.991
 Vibration     6          0.666              1.753              1.691
 Vibration     7          0.679              1.714              1.544
 Vibration     8          0.724              1.583              1.183
 Vibration     9          0.751              1.509              1.032
 Vibration    10          0.771              1.457              0.940
 Vibration    11          0.792              1.404              0.857
 Vibration    12          0.804              1.374              0.813
 Vibration    13          0.842              1.282              0.695
 Vibration    14          0.876              1.204              0.609
 Vibration    15          0.891              1.171              0.574
 Vibration    16          0.954              1.039              0.456

 Optimization completed.
    -- Stationary point found.
 Normal termination of Gaussian 16 at Sat Mar  9 04:20:41 2019.
