 Gaussian 16, Revision B.01,
 Gaussian 16:  ES64L-G16RevB.01 20-Dec-2017

 ----------------------------------------------------------------------
 #M062X/6-311++G(2d,2p) opt=ModRedundant freq=noraman SCRF=(SMD,solvent
 =water)
 ----------------------------------------------------------------------

 --------------------------------
 4c1_a1_a4_4c1_PSI.inp_extract_12
 --------------------------------
 Symbolic Z-matrix:
 Charge =  0 Multiplicity = 1

 SCF Done:  E(RM062X) =  -617.498279730     A.U. after   13 cycles
 SCF Done:  E(RM062X) =  -617.499322740     A.U. after   12 cycles
 SCF Done:  E(RM062X) =  -617.500262989     A.U. after   11 cycles
 SCF Done:  E(RM062X) =  -617.500510967     A.U. after   10 cycles
 SCF Done:  E(RM062X) =  -617.500635776     A.U. after   10 cycles
 SCF Done:  E(RM062X) =  -617.497996193     A.U. after   13 cycles
 SCF Done:  E(RM062X) =  -617.500397836     A.U. after   11 cycles
 SCF Done:  E(RM062X) =  -617.500764205     A.U. after    9 cycles
 SCF Done:  E(RM062X) =  -617.500951295     A.U. after   10 cycles
 SCF Done:  E(RM062X) =  -617.501063093     A.U. after   12 cycles
 SCF Done:  E(RM062X) =  -617.501114786     A.U. after   10 cycles
 SCF Done:  E(RM062X) =  -617.501296053     A.U. after   10 cycles
 SCF Done:  E(RM062X) =  -617.501318630     A.U. after   10 cycles
 SCF Done:  E(RM062X) =  -617.501293919     A.U. after   10 cycles
 SCF Done:  E(RM062X) =  -617.501320613     A.U. after   10 cycles
 SCF Done:  E(RM062X) =  -617.501332005     A.U. after    9 cycles
 SCF Done:  E(RM062X) =  -617.501334273     A.U. after    9 cycles
 SCF Done:  E(RM062X) =  -617.501334394     A.U. after    7 cycles
 SCF Done:  E(RM062X) =  -617.501334359     A.U. after    7 cycles
 Optimization completed.
    -- Stationary point found.
 Normal termination of Gaussian 16 at Sat Mar  9 02:25:33 2019.

 ----------------------------------------------------------------------
 #N Geom=AllCheck Guess=TCheck SCRF=Check GenChk RM062X/6-311++G(2d,2p)
  Freq
 ----------------------------------------------------------------------

 Structure from the checkpoint file:  "4c1_a1_a4_4c1_PSI.inp_extract_12.chk"
 --------------------------------
 4c1_a1_a4_4c1_PSI.inp_extract_12
 --------------------------------
 Charge =  0 Multiplicity = 1

                         Standard orientation:
 ---------------------------------------------------------------------
 Center     Atomic      Atomic             Coordinates (Angstroms)
 Number     Number       Type             X           Y           Z
 ---------------------------------------------------------------------
      1          6           0       -2.016340   -1.398498   -0.038017
      2          6           0        0.802167   -0.727241   -0.489509
      3          6           0       -1.136876   -0.799897    1.049976
      4          6           0        3.043528    1.038464   -0.055200
      5          6           0       -2.862036    0.671159   -0.764974
      6          8           0       -2.203251   -0.534721   -1.151456
      7          6           0        3.146160   -0.422324    0.378219
      8          6           0        1.590851    1.477925   -0.038125
      9          6           0        2.221810   -1.275064   -0.488704
     10          6           0       -1.998326    1.481534    0.184398
     11          8           0        0.782057    0.633684   -0.863867
     12          8           0        0.270656   -0.951237    0.795816
     13          6           0       -1.591575    0.626065    1.384167
     14          1           0       -2.991212   -1.629283    0.405032
     15          1           0       -1.583264   -2.322635   -0.417941
     16          1           0        0.195219   -1.229414   -1.241507
     17          1           0       -1.281163   -1.409645    1.941468
     18          1           0        3.437998    1.152159   -1.067904
     19          1           0        3.621505    1.688207    0.602629
     20          1           0       -3.067142    1.216538   -1.683881
     21          1           0       -3.816840    0.414020   -0.291297
     22          1           0        2.858468   -0.511861    1.427952
     23          1           0        4.171785   -0.780042    0.292894
     24          1           0        1.469387    2.481877   -0.439860
     25          1           0        1.202377    1.467617    0.983506
     26          1           0        2.573906   -1.261419   -1.521807
     27          1           0        2.199301   -2.312292   -0.156938
     28          1           0       -2.565618    2.347578    0.527682
     29          1           0       -1.124534    1.846693   -0.349401
     30          1           0       -0.824665    1.116681    1.983615
     31          1           0       -2.467385    0.510681    2.028427
 ---------------------------------------------------------------------

 SCF Done:  E(RM062X) =  -617.501334359     A.U. after    1 cycles

 The electronic state is 1-A.
 Alpha  occ. eigenvalues --  -19.62893 -19.62845 -19.62697 -10.62893 -10.58481
 Alpha  occ. eigenvalues --  -10.57629 -10.57222 -10.57163 -10.52503 -10.52316
 Alpha  occ. eigenvalues --  -10.52275 -10.52152 -10.51860  -1.19319  -1.16026
 Alpha  occ. eigenvalues --   -1.12869  -0.90277  -0.88912  -0.86490  -0.84211
 Alpha  occ. eigenvalues --   -0.74500  -0.73627  -0.72506  -0.70492  -0.65546
 Alpha  occ. eigenvalues --   -0.61915  -0.58720  -0.58316  -0.56741  -0.54795
 Alpha  occ. eigenvalues --   -0.54262  -0.52184  -0.50957  -0.50430  -0.49582
 Alpha  occ. eigenvalues --   -0.48256  -0.45611  -0.45440  -0.45135  -0.44807
 Alpha  occ. eigenvalues --   -0.42662  -0.42048  -0.40977  -0.39484  -0.38974
 Alpha  occ. eigenvalues --   -0.37600  -0.36809  -0.36443  -0.34527  -0.32820
 Alpha  occ. eigenvalues --   -0.31324
 Alpha virt. eigenvalues --    0.00289   0.01235   0.01467   0.01533   0.02830
 Alpha virt. eigenvalues --    0.03065   0.03215   0.03683   0.03836   0.05227
 Alpha virt. eigenvalues --    0.05357   0.05770   0.06046   0.06146   0.07690

 Mulliken charges:
               1
     1  C   -0.438775
     2  C   -0.107036
     3  C    0.384387
     4  C   -0.462173
     5  C   -0.214505
     6  O   -0.331969
     7  C   -0.308505
     8  C   -0.054514
     9  C   -0.505848
    10  C   -0.282652
    11  O   -0.299159
    12  O   -0.368560
    13  C   -0.636398
    14  H    0.186444
    15  H    0.216969
    16  H    0.304745
    17  H    0.264637
    18  H    0.167076
    19  H    0.181726
    20  H    0.204446
    21  H    0.172894
    22  H    0.177806
    23  H    0.193561
    24  H    0.220739
    25  H    0.156423
    26  H    0.196502
    27  H    0.191038
    28  H    0.198759
    29  H    0.179470
    30  H    0.183635
    31  H    0.228838
 Sum of Mulliken charges =  -0.00000

 Dipole moment (field-independent basis, Debye):
    X=             -0.4106    Y=              0.5799    Z=              2.4723  Tot=              2.5723
 Quadrupole moment (field-independent basis, Debye-Ang):
   XX=            -69.9792   YY=            -75.1751   ZZ=            -84.0108
   XY=              0.1184   XZ=             -5.8773   YZ=              1.0833

  Exact polarizability: 177.921  -0.155 176.453  -1.143  -0.650 168.593
 Approx polarizability: 143.573  -0.064 144.219  -1.347  -1.072 142.666

                      1                      2                      3
                      A                      A                      A
 Frequencies --     32.8372               103.1796               112.3578
 Red. masses --      3.8846                 3.7043                 3.7287
 Frc consts  --      0.0025                 0.0232                 0.0277
 IR Inten    --      0.0938                 5.5839                 3.4746

                      4                      5                      6
                      A                      A                      A
 Frequencies --    131.4691               191.2283               219.9409
 Red. masses --      3.6500                 3.6521                 2.6428
 Frc consts  --      0.0372                 0.0787                 0.0753
 IR Inten    --      2.4411                 6.2964                 3.9750

                      7                      8                      9
                      A                      A                      A
 Frequencies --    257.5002               309.4717               335.4978
 Red. masses --      2.5966                 2.2153                 2.4274
 Frc consts  --      0.1014                 0.1250                 0.1610
 IR Inten    --      4.0445                 8.5774                 4.7317

                     10                     11                     12
                      A                      A                      A
 Frequencies --    369.2860               413.4829               438.5093
 Red. masses --      2.3518                 2.1558                 3.4553
 Frc consts  --      0.1890                 0.2172                 0.3915
 IR Inten    --      3.9861                 8.2359                12.7400

                     13                     14                     15
                      A                      A                      A
 Frequencies --    446.7417               483.5433               520.2869
 Red. masses --      2.2710                 4.5147                 2.5920
 Frc consts  --      0.2670                 0.6219                 0.4134
 IR Inten    --      4.9021                20.9546                 5.5241

                     16                     17                     18
                      A                      A                      A
 Frequencies --    533.3728               576.7282               677.8660
 Red. masses --      1.9450                 2.9358                 2.8656
 Frc consts  --      0.3260                 0.5753                 0.7758
 IR Inten    --      5.1119                25.1139                 4.5545

                     19                     20                     21
                      A                      A                      A
 Frequencies --    757.4812               790.6962               837.1065
 Red. masses --      2.3333                 2.9727                 1.5611
 Frc consts  --      0.7888                 1.0950                 0.6445
 IR Inten    --      4.5153                 4.2293                 2.4116

                     22                     23                     24
                      A                      A                      A
 Frequencies --    849.1209               855.4483               874.0202
 Red. masses --      3.2146                 1.8062                 2.6662
 Frc consts  --      1.3656                 0.7787                 1.2000
 IR Inten    --      3.0299                22.7356                16.2189

                     25                     26                     27
                      A                      A                      A
 Frequencies --    898.6505               904.0617               913.9438
 Red. masses --      2.4742                 2.4106                 2.2943
 Frc consts  --      1.1772                 1.1608                 1.1291
 IR Inten    --     40.7829                25.1971                30.0697

                     28                     29                     30
                      A                      A                      A
 Frequencies --    932.5032               964.8994               986.2197
 Red. masses --      1.7943                 1.7832                 2.0967
 Frc consts  --      0.9193                 0.9782                 1.2015
 IR Inten    --     17.7057                 8.4965                53.4852

                     31                     32                     33
                      A                      A                      A
 Frequencies --   1033.6980              1037.4205              1063.6032
 Red. masses --      2.0925                 2.1666                 1.7601
 Frc consts  --      1.3173                 1.3739                 1.1731
 IR Inten    --     31.1897                13.6250                34.4517

                     34                     35                     36
                      A                      A                      A
 Frequencies --   1064.2240              1069.7939              1087.2224
 Red. masses --      1.7837                 1.6389                 2.0003
 Frc consts  --      1.1902                 1.1051                 1.3931
 IR Inten    --     14.8177                15.2248               178.3130

                     37                     38                     39
                      A                      A                      A
 Frequencies --   1100.6085              1157.3076              1164.7084
 Red. masses --      1.6689                 2.7075                 2.6370
 Frc consts  --      1.1911                 2.1366                 2.1076
 IR Inten    --     83.9758                90.6939               113.1289

                     40                     41                     42
                      A                      A                      A
 Frequencies --   1172.9606              1206.0964              1211.9960
 Red. masses --      2.4843                 2.4507                 1.6469
 Frc consts  --      2.0138                 2.1004                 1.4254
 IR Inten    --     76.2685               153.8310                84.8362

                     43                     44                     45
                      A                      A                      A
 Frequencies --   1232.3312              1239.8535              1245.2302
 Red. masses --      1.3053                 1.8353                 2.0007
 Frc consts  --      1.1679                 1.6623                 1.8278
 IR Inten    --     69.6697                33.3895               118.3881

                     46                     47                     48
                      A                      A                      A
 Frequencies --   1284.2169              1318.6904              1320.7188
 Red. masses --      1.2354                 1.1687                 1.1975
 Frc consts  --      1.2004                 1.1974                 1.2307
 IR Inten    --     35.5062                21.9841                44.2059

                     49                     50                     51
                      A                      A                      A
 Frequencies --   1342.7089              1356.9041              1357.9490
 Red. masses --      1.3148                 1.4613                 1.3920
 Frc consts  --      1.3966                 1.5852                 1.5123
 IR Inten    --     34.4027                 4.7890                 1.6068

                     52                     53                     54
                      A                      A                      A
 Frequencies --   1370.5600              1384.5525              1389.2364
 Red. masses --      1.3164                 1.5227                 1.6682
 Frc consts  --      1.4569                 1.7198                 1.8969
 IR Inten    --      8.8404                 5.5045                14.3919

                     55                     56                     57
                      A                      A                      A
 Frequencies --   1395.3369              1404.9184              1406.3940
 Red. masses --      1.4903                 1.3214                 1.3809
 Frc consts  --      1.7096                 1.5366                 1.6093
 IR Inten    --      8.3721                 0.6280                 5.6257

                     58                     59                     60
                      A                      A                      A
 Frequencies --   1413.5173              1428.2193              1433.0016
 Red. masses --      1.3524                 1.3451                 1.2706
 Frc consts  --      1.5920                 1.6165                 1.5373
 IR Inten    --     25.1599                13.3512                 4.2394

                     61                     62                     63
                      A                      A                      A
 Frequencies --   1444.8972              1469.6671              1470.8155
 Red. masses --      1.3197                 1.0962                 1.1069
 Frc consts  --      1.6233                 1.3949                 1.4109
 IR Inten    --     48.4672                 3.4244                 5.7546

                     64                     65                     66
                      A                      A                      A
 Frequencies --   1473.2850              1479.3371              1490.2241
 Red. masses --      1.0858                 1.1092                 1.1206
 Frc consts  --      1.3886                 1.4302                 1.4662
 IR Inten    --      7.0927                19.9267                16.3344

                     67                     68                     69
                      A                      A                      A
 Frequencies --   1491.7666              1505.2293              1507.2873
 Red. masses --      1.0810                 1.0995                 1.0956
 Frc consts  --      1.4173                 1.4677                 1.4665
 IR Inten    --      7.7072                 8.2825                 5.9591

                     70                     71                     72
                      A                      A                      A
 Frequencies --   3031.0294              3044.0462              3062.0439
 Red. masses --      1.0696                 1.0684                 1.0667
 Frc consts  --      5.7899                 5.8328                 5.8926
 IR Inten    --     81.9296                51.9648                23.5476

                     73                     74                     75
                      A                      A                      A
 Frequencies --   3063.6238              3070.6584              3072.0317
 Red. masses --      1.0669                 1.0639                 1.0627
 Frc consts  --      5.8997                 5.9103                 5.9087
 IR Inten    --     19.4531                34.6489                76.9755

                     76                     77                     78
                      A                      A                      A
 Frequencies --   3081.7786              3091.8574              3105.2490
 Red. masses --      1.0631                 1.0669                 1.0858
 Frc consts  --      5.9490                 6.0089                 6.1686
 IR Inten    --     25.1611                44.4523                55.5700

                     79                     80                     81
                      A                      A                      A
 Frequencies --   3115.5972              3116.2653              3120.0228
 Red. masses --      1.0974                 1.0966                 1.1025
 Frc consts  --      6.2762                 6.2745                 6.3232
 IR Inten    --     12.0163                70.4729                69.2341

                     82                     83                     84
                      A                      A                      A
 Frequencies --   3124.9218              3132.5148              3133.0711
 Red. masses --      1.0872                 1.0960                 1.1028
 Frc consts  --      6.2551                 6.3363                 6.3783
 IR Inten    --     38.6058                54.4162                37.8386

                     85                     86                     87
                      A                      A                      A
 Frequencies --   3134.9057              3138.2544              3153.7171
 Red. masses --      1.0955                 1.1011                 1.0978
 Frc consts  --      6.3431                 6.3894                 6.4332
 IR Inten    --     26.1090                47.1657                29.2674

 - Thermochemistry -
 -------------------
 Temperature   298.150 Kelvin.  Pressure   1.00000 Atm.
 Atom     1 has atomic number  6 and mass  12.00000

 Molecular mass:   186.12559 amu.
 Principal axes and moments of inertia in atomic units:
                           1         2         3
     Eigenvalues --  1153.960683191.349183497.87753
           X            0.99996  -0.00501  -0.00688
           Y            0.00519   0.99963   0.02658
           Z            0.00674  -0.02662   0.99962
 This molecule is an asymmetric top.
 Rotational symmetry number  1.
 Warning -- assumption of classical behavior for rotation
           may cause significant error
 Rotational temperatures (Kelvin)      0.07506     0.02714     0.02476
 Rotational constants (GHZ):           1.56395     0.56551     0.51595
 Zero-point vibrational energy     738906.5 (Joules/Mol)
                                  176.60290 (Kcal/Mol)
 Warning -- explicit consideration of  17 degrees of freedom as
           vibrations may cause significant error
 Vibrational temperatures:     47.25   148.45   161.66   189.15   275.13
          (Kelvin)            316.45   370.49   445.26   482.71   531.32
                              594.91   630.92   642.76   695.71   748.58
                              767.40   829.78   975.30  1089.85  1137.64
                             1204.41  1221.70  1230.80  1257.52  1292.96
                             1300.74  1314.96  1341.66  1388.28  1418.95
                             1487.26  1492.62  1530.29  1531.18  1539.19
                             1564.27  1583.53  1665.11  1675.76  1687.63
                             1735.30  1743.79  1773.05  1783.87  1791.61
                             1847.70  1897.30  1900.22  1931.86  1952.28
                             1953.79  1971.93  1992.06  1998.80  2007.58
                             2021.36  2023.49  2033.74  2054.89  2061.77
                             2078.88  2114.52  2116.18  2119.73  2128.44
                             2144.10  2146.32  2165.69  2168.65  4360.98
                             4379.70  4405.60  4407.87  4417.99  4419.97
                             4433.99  4448.49  4467.76  4482.65  4483.61
                             4489.02  4496.07  4506.99  4507.79  4510.43
                             4515.25  4537.50

 Zero-point correction=                           0.281435 (Hartree/Particle)
 Thermal correction to Energy=                    0.292966
 Thermal correction to Enthalpy=                  0.293910
 Thermal correction to Gibbs Free Energy=         0.243724
 Sum of electronic and zero-point Energies=           -617.219900
 Sum of electronic and thermal Energies=              -617.208369
 Sum of electronic and thermal Enthalpies=            -617.207425
 Sum of electronic and thermal Free Energies=         -617.257610

                     E (Thermal)             CV                S
                      KCal/Mol        Cal/Mol-Kelvin    Cal/Mol-Kelvin
 Total                  183.839             46.460            105.624
 Electronic               0.000              0.000              0.000
 Translational            0.889              2.981             41.570
 Rotational               0.889              2.981             30.933
 Vibrational            182.061             40.498             33.122
 Vibration     1          0.594              1.983              5.650
 Vibration     2          0.605              1.947              3.393
 Vibration     3          0.607              1.939              3.228
 Vibration     4          0.612              1.922              2.924
 Vibration     5          0.634              1.852              2.216
 Vibration     6          0.647              1.811              1.960
 Vibration     7          0.667              1.750              1.679
 Vibration     8          0.699              1.656              1.365
 Vibration     9          0.717              1.605              1.233
 Vibration    10          0.742              1.535              1.083
 Vibration    11          0.777              1.441              0.914
 Vibration    12          0.799              1.386              0.831
 Vibration    13          0.806              1.368              0.806
 Vibration    14          0.840              1.287              0.701
 Vibration    15          0.875              1.205              0.609
 Vibration    16          0.888              1.176              0.580
 Vibration    17          0.933              1.082              0.491

 Optimization completed.
    -- Stationary point found.
 Normal termination of Gaussian 16 at Sat Mar  9 03:34:34 2019.
