 Gaussian 16, Revision A.03,
 Gaussian 16:  ES64L-G16RevA.03 25-Dec-2016

 ----------------------------------------------------------------------
 #M062X/6-311++G(2d,2p) opt=ModRedundant freq=noraman SCRF=(Solvent=Wat
 er)
 ----------------------------------------------------------------------

 ---------------------------
 L_a1-e4_D_PHI.inp_extract_5
 ---------------------------
 Symbolic Z-matrix:
 Charge =  0 Multiplicity = 1

 SCF Done:  E(RM062X) =  -617.489151801     A.U. after   12 cycles
 SCF Done:  E(RM062X) =  -617.490040173     A.U. after   12 cycles
 SCF Done:  E(RM062X) =  -617.490358614     A.U. after   11 cycles
 SCF Done:  E(RM062X) =  -617.490962814     A.U. after   10 cycles
 SCF Done:  E(RM062X) =  -617.491067391     A.U. after   10 cycles
 SCF Done:  E(RM062X) =  -617.491085161     A.U. after    9 cycles
 SCF Done:  E(RM062X) =  -617.491089337     A.U. after    8 cycles
 SCF Done:  E(RM062X) =  -617.491088243     A.U. after    8 cycles
 SCF Done:  E(RM062X) =  -617.491088207     A.U. after    6 cycles
 SCF Done:  E(RM062X) =  -617.491089260     A.U. after    8 cycles
 SCF Done:  E(RM062X) =  -617.491088096     A.U. after    8 cycles
 Optimization completed.
    -- Stationary point found.
 Normal termination of Gaussian 16 at Sun Nov  4 22:17:01 2018.

 ----------------------------------------------------------------------
 #N Geom=AllCheck Guess=TCheck SCRF=Check GenChk RM062X/6-311++G(2d,2p)
  Freq
 ----------------------------------------------------------------------

 Structure from the checkpoint file:  "L_a1-e4_D_PHI.inp_extract_5.chk"
 ---------------------------
 L_a1-e4_D_PHI.inp_extract_5
 ---------------------------
 Charge =  0 Multiplicity = 1

                         Standard orientation:
 ---------------------------------------------------------------------
 Center     Atomic      Atomic             Coordinates (Angstroms)
 Number     Number       Type             X           Y           Z
 ---------------------------------------------------------------------
      1          6           0        1.908932   -1.309804    0.846762
      2          8           0        1.463033   -1.219761   -0.513858
      3          6           0        2.822265    0.992665    0.701986
      4          8           0       -2.698978   -1.293742   -0.001219
      5          6           0        1.420851    0.028131   -1.150433
      6          6           0        2.574531    0.954175   -0.799497
      7          6           0       -2.956129    0.905759    0.995691
      8          8           0        0.192110    0.740793   -0.973206
      9          6           0       -1.746873    1.410581    0.208706
     10          6           0       -3.620742   -0.242287    0.252804
     11          6           0       -0.823246    0.247998   -0.118337
     12          6           0       -1.618426   -0.859028   -0.807766
     13          6           0        3.106393   -0.433401    1.159914
     14          1           0        1.090640   -1.054412    1.522869
     15          1           0        2.140173   -2.362958    0.991433
     16          1           0        1.940066    1.382181    1.218803
     17          1           0        3.655015    1.654563    0.934497
     18          1           0        1.459243   -0.217954   -2.212541
     19          1           0        3.470498    0.584884   -1.303257
     20          1           0        2.344835    1.936856   -1.207630
     21          1           0       -3.677876    1.708218    1.149017
     22          1           0       -2.640432    0.553516    1.980096
     23          1           0       -2.077027    1.860041   -0.732017
     24          1           0       -1.199483    2.171568    0.765253
     25          1           0       -4.429473   -0.677990    0.835702
     26          1           0       -4.031539    0.114317   -0.699908
     27          1           0       -0.409550   -0.142739    0.810669
     28          1           0       -0.987953   -1.724628   -0.995514
     29          1           0       -1.991848   -0.473797   -1.765833
     30          1           0        3.298414   -0.486659    2.231533
     31          1           0        3.991645   -0.812057    0.644120
 ---------------------------------------------------------------------

 SCF Done:  E(RM062X) =  -617.491088096     A.U. after    1 cycles

 The electronic state is 1-A.
 Alpha  occ. eigenvalues --  -19.63795 -19.62973 -19.62565 -10.63874 -10.58564
 Alpha  occ. eigenvalues --  -10.58405 -10.57958 -10.57509 -10.53289 -10.53214
 Alpha  occ. eigenvalues --  -10.53201 -10.53103 -10.53100  -1.19523  -1.16427
 Alpha  occ. eigenvalues --   -1.13335  -0.91202  -0.90274  -0.87398  -0.84401
 Alpha  occ. eigenvalues --   -0.74945  -0.74258  -0.73416  -0.70441  -0.65651
 Alpha  occ. eigenvalues --   -0.64266  -0.59467  -0.58515  -0.57498  -0.55381
 Alpha  occ. eigenvalues --   -0.54727  -0.53044  -0.52541  -0.51206  -0.50282
 Alpha  occ. eigenvalues --   -0.47952  -0.47221  -0.45846  -0.45533  -0.44455
 Alpha  occ. eigenvalues --   -0.43843  -0.43280  -0.40480  -0.40080  -0.39532
 Alpha  occ. eigenvalues --   -0.39128  -0.37609  -0.36833  -0.34469  -0.33947
 Alpha  occ. eigenvalues --   -0.31003
 Alpha virt. eigenvalues --   -0.00174   0.00677   0.00879   0.01119   0.02201
 Alpha virt. eigenvalues --    0.02548   0.02636   0.03255   0.03484   0.04565
 Alpha virt. eigenvalues --    0.04756   0.05000   0.05608   0.05689   0.07020

 Mulliken charges:
               1
     1  C   -0.201857
     2  O   -0.258823
     3  C   -0.279929
     4  O   -0.307110
     5  C   -0.153443
     6  C   -0.336355
     7  C   -0.366089
     8  O   -0.249816
     9  C   -0.335183
    10  C   -0.144924
    11  C   -0.112334
    12  C   -0.315605
    13  C   -0.341854
    14  H    0.155375
    15  H    0.192962
    16  H    0.160535
    17  H    0.204313
    18  H    0.240156
    19  H    0.188013
    20  H    0.185312
    21  H    0.187872
    22  H    0.157761
    23  H    0.205122
    24  H    0.157234
    25  H    0.210367
    26  H    0.138309
    27  H    0.270921
    28  H    0.210461
    29  H    0.189695
    30  H    0.179613
    31  H    0.169300
 Sum of Mulliken charges =  -0.00000

 Dipole moment (field-independent basis, Debye):
    X=              1.5433    Y=              1.9119    Z=              1.8022  Tot=              3.0471
 Quadrupole moment (field-independent basis, Debye-Ang):
   XX=            -71.4116   YY=            -85.5146   ZZ=            -78.2088
   XY=             -5.2958   XZ=              1.1167   YZ=             -0.0800

  Exact polarizability: 172.246  -1.458 156.006  -2.448  -2.143 157.393
 Approx polarizability: 145.789  -2.331 142.343  -2.149  -2.524 144.768

 ******    1 imaginary frequencies (negative Signs) ******

                      1                      2                      3
                      A                      A                      A
 Frequencies --    -77.0928                49.1998                90.7136
 Red. masses --      4.0300                 3.5418                 3.6753
 Frc consts  --      0.0141                 0.0051                 0.0178
 IR Inten    --      2.1787                 2.4425                 1.0293

                      4                      5                      6
                      A                      A                      A
 Frequencies --    117.7225               197.0563               211.6227
 Red. masses --      3.0609                 3.0410                 3.0151
 Frc consts  --      0.0250                 0.0696                 0.0796
 IR Inten    --      2.1446                 7.4171                 3.4712

                      7                      8                      9
                      A                      A                      A
 Frequencies --    252.9544               281.2314               315.9274
 Red. masses --      2.0734                 3.0294                 3.3773
 Frc consts  --      0.0782                 0.1412                 0.1986
 IR Inten    --      3.4926                 6.5017                17.8332

                     10                     11                     12
                      A                      A                      A
 Frequencies --    359.4043               374.7468               433.0305
 Red. masses --      2.1106                 2.4107                 3.1630
 Frc consts  --      0.1606                 0.1995                 0.3494
 IR Inten    --      7.8624                14.1178                 2.4375

                     13                     14                     15
                      A                      A                      A
 Frequencies --    441.5585               456.9946               480.3645
 Red. masses --      3.2126                 3.5020                 2.1836
 Frc consts  --      0.3690                 0.4309                 0.2969
 IR Inten    --      2.7700                 1.0381                 0.6843

                     16                     17                     18
                      A                      A                      A
 Frequencies --    524.9268               569.8600               610.3313
 Red. masses --      2.6471                 2.2134                 2.6904
 Frc consts  --      0.4298                 0.4235                 0.5905
 IR Inten    --      0.9022                 7.9268                 0.8527

                     19                     20                     21
                      A                      A                      A
 Frequencies --    724.1008               808.6681               835.2823
 Red. masses --      3.2671                 2.2844                 1.9686
 Frc consts  --      1.0093                 0.8802                 0.8092
 IR Inten    --      6.4928                 2.6306                 2.1126

                     22                     23                     24
                      A                      A                      A
 Frequencies --    848.1870               878.5383               883.0029
 Red. masses --      2.1604                 1.4456                 2.3418
 Frc consts  --      0.9157                 0.6574                 1.0758
 IR Inten    --      2.5631                 7.8779                15.4397

                     25                     26                     27
                      A                      A                      A
 Frequencies --    900.3565               902.7971               929.0853
 Red. masses --      2.5837                 2.2174                 1.8723
 Frc consts  --      1.2340                 1.0648                 0.9522
 IR Inten    --     19.0785                21.0640                19.9433

                     28                     29                     30
                      A                      A                      A
 Frequencies --    947.8373               968.1403               993.3032
 Red. masses --      1.9808                 2.1330                 1.5177
 Frc consts  --      1.0485                 1.1779                 0.8822
 IR Inten    --     21.6074                99.7586                11.1405

                     31                     32                     33
                      A                      A                      A
 Frequencies --   1015.0528              1045.7609              1054.8993
 Red. masses --      2.3927                 2.3095                 1.7593
 Frc consts  --      1.4525                 1.4881                 1.1535
 IR Inten    --     11.3751                30.6263                40.1709

                     34                     35                     36
                      A                      A                      A
 Frequencies --   1064.6764              1074.3537              1112.3908
 Red. masses --      1.5286                 2.0685                 3.0834
 Frc consts  --      1.0209                 1.4067                 2.2480
 IR Inten    --     85.7918                11.7195               179.0470

                     37                     38                     39
                      A                      A                      A
 Frequencies --   1143.7342              1151.5713              1152.4001
 Red. masses --      2.5094                 2.4828                 2.8408
 Frc consts  --      1.9341                 1.9399                 2.2227
 IR Inten    --    143.8863                31.2870                72.4895

                     40                     41                     42
                      A                      A                      A
 Frequencies --   1189.8058              1192.4806              1209.1450
 Red. masses --      2.3646                 2.6048                 1.3849
 Frc consts  --      1.9723                 2.1824                 1.1929
 IR Inten    --     99.8779               146.5855                25.0199

                     43                     44                     45
                      A                      A                      A
 Frequencies --   1214.8282              1243.0459              1251.5371
 Red. masses --      1.6077                 1.9347                 1.5483
 Frc consts  --      1.3979                 1.7613                 1.4289
 IR Inten    --     43.0834               116.2419                47.1536

                     46                     47                     48
                      A                      A                      A
 Frequencies --   1291.1104              1302.0437              1320.3072
 Red. masses --      1.2251                 1.1867                 1.1624
 Frc consts  --      1.2033                 1.1854                 1.1939
 IR Inten    --     22.4201                21.7189                 7.1969

                     49                     50                     51
                      A                      A                      A
 Frequencies --   1328.1883              1345.5263              1349.0385
 Red. masses --      1.2696                 1.2726                 1.2129
 Frc consts  --      1.3195                 1.3575                 1.3006
 IR Inten    --      8.5227                 2.9324                10.9245

                     52                     53                     54
                      A                      A                      A
 Frequencies --   1359.1185              1383.2326              1386.3445
 Red. masses --      1.3731                 1.4447                 1.5355
 Frc consts  --      1.4944                 1.6286                 1.7387
 IR Inten    --      2.7642                 2.2647                 1.7945

                     55                     56                     57
                      A                      A                      A
 Frequencies --   1390.5671              1393.7470              1407.9289
 Red. masses --      1.4817                 1.7436                 1.3475
 Frc consts  --      1.6881                 1.9955                 1.5738
 IR Inten    --      3.1299                24.9191                10.7394

                     58                     59                     60
                      A                      A                      A
 Frequencies --   1412.7773              1418.2670              1431.1934
 Red. masses --      1.3238                 1.3059                 1.3940
 Frc consts  --      1.5567                 1.5477                 1.6824
 IR Inten    --      4.9936                 5.9465                 4.0563

                     61                     62                     63
                      A                      A                      A
 Frequencies --   1448.3261              1477.6544              1481.4857
 Red. masses --      1.3174                 1.1007                 1.0920
 Frc consts  --      1.6282                 1.4160                 1.4121
 IR Inten    --     16.0853                 5.0202                 8.1080

                     64                     65                     66
                      A                      A                      A
 Frequencies --   1488.9189              1496.2923              1499.0620
 Red. masses --      1.0868                 1.1129                 1.1115
 Frc consts  --      1.4195                 1.4680                 1.4717
 IR Inten    --     11.3131                 8.3176                15.4983

                     67                     68                     69
                      A                      A                      A
 Frequencies --   1501.2705              1514.5460              1525.7149
 Red. masses --      1.0830                 1.1008                 1.0917
 Frc consts  --      1.4382                 1.4877                 1.4973
 IR Inten    --      0.4782                 8.7684                 4.1215

                     70                     71                     72
                      A                      A                      A
 Frequencies --   3011.7845              3017.8529              3052.4213
 Red. masses --      1.0700                 1.0705                 1.0688
 Frc consts  --      5.7187                 5.7442                 5.8673
 IR Inten    --     50.1218                92.5033                24.1561

                     73                     74                     75
                      A                      A                      A
 Frequencies --   3056.9210              3063.3207              3068.8272
 Red. masses --      1.0642                 1.0691                 1.0640
 Frc consts  --      5.8590                 5.9107                 5.9040
 IR Inten    --     31.7646                23.2527                39.8118

                     76                     77                     78
                      A                      A                      A
 Frequencies --   3069.3787              3071.2581              3083.1907
 Red. masses --      1.0624                 1.0684                 1.0806
 Frc consts  --      5.8973                 5.9376                 6.0520
 IR Inten    --     25.0093                28.5779               112.0790

                     79                     80                     81
                      A                      A                      A
 Frequencies --   3108.2886              3118.1358              3118.9179
 Red. masses --      1.0934                 1.0974                 1.0965
 Frc consts  --      6.2242                 6.2867                 6.2845
 IR Inten    --     34.6685                35.5853                20.3415

                     82                     83                     84
                      A                      A                      A
 Frequencies --   3119.9040              3123.8462              3131.3437
 Red. masses --      1.1004                 1.0895                 1.0946
 Frc consts  --      6.3105                 6.2641                 6.3234
 IR Inten    --     60.6457                97.1551                49.8112

                     85                     86                     87
                      A                      A                      A
 Frequencies --   3133.9448              3134.4787              3148.9849
 Red. masses --      1.0990                 1.0993                 1.0945
 Frc consts  --      6.3597                 6.3637                 6.3943
 IR Inten    --     21.8349                64.3119                23.2800

 - Thermochemistry -
 -------------------
 Temperature   298.150 Kelvin.  Pressure   1.00000 Atm.
 Atom     1 has atomic number  6 and mass  12.00000

 Molecular mass:   186.12559 amu.
 Principal axes and moments of inertia in atomic units:
                           1         2         3
     Eigenvalues --  1095.988183973.238354166.91601
           X            0.99997  -0.00616   0.00388
           Y            0.00614   0.99997   0.00500
           Z           -0.00391  -0.00498   0.99998
 This molecule is an asymmetric top.
 Rotational symmetry number  1.
 Warning -- assumption of classical behavior for rotation
           may cause significant error
 Rotational temperatures (Kelvin)      0.07903     0.02180     0.02079
 Rotational constants (GHZ):           1.64668     0.45422     0.43311
    1 imaginary frequencies ignored.
 Zero-point vibrational energy     736230.3 (Joules/Mol)
                                  175.96326 (Kcal/Mol)
 Warning -- explicit consideration of  17 degrees of freedom as
           vibrations may cause significant error
 Vibrational temperatures:     70.79   130.52   169.38   283.52   304.48
          (Kelvin)            363.94   404.63   454.55   517.10   539.18
                              623.03   635.30   657.51   691.14   755.25
                              819.90   878.13  1041.82  1163.49  1201.78
                             1220.35  1264.02  1270.44  1295.41  1298.92
                             1336.75  1363.73  1392.94  1429.14  1460.43
                             1504.62  1517.76  1531.83  1545.76  1600.48
                             1645.58  1656.85  1658.05  1711.87  1715.71
                             1739.69  1747.87  1788.47  1800.68  1857.62
                             1873.35  1899.63  1910.97  1935.91  1940.97
                             1955.47  1990.16  1994.64  2000.72  2005.29
                             2025.70  2032.67  2040.57  2059.17  2083.82
                             2126.02  2131.53  2142.22  2152.83  2156.82
                             2159.99  2179.09  2195.16  4333.29  4342.02
                             4391.75  4398.23  4407.44  4415.36  4416.15
                             4418.86  4436.02  4472.13  4486.30  4487.43
                             4488.85  4494.52  4505.31  4509.05  4509.82
                             4530.69

 Zero-point correction=                           0.280415 (Hartree/Particle)
 Thermal correction to Energy=                    0.291460
 Thermal correction to Enthalpy=                  0.292404
 Thermal correction to Gibbs Free Energy=         0.243366
 Sum of electronic and zero-point Energies=           -617.210673
 Sum of electronic and thermal Energies=              -617.199628
 Sum of electronic and thermal Enthalpies=            -617.198684
 Sum of electronic and thermal Free Energies=         -617.247722

                     E (Thermal)             CV                S
                      KCal/Mol        Cal/Mol-Kelvin    Cal/Mol-Kelvin
 Total                  182.894             45.008            103.208
 Electronic               0.000              0.000              0.000
 Translational            0.889              2.981             41.570
 Rotational               0.889              2.981             31.273
 Vibrational            181.116             39.046             30.365
 Vibration     1          0.595              1.978              4.849
 Vibration     2          0.602              1.956              3.645
 Vibration     3          0.608              1.935              3.137
 Vibration     4          0.636              1.844              2.160
 Vibration     5          0.643              1.823              2.030
 Vibration     6          0.664              1.758              1.710
 Vibration     7          0.681              1.708              1.526
 Vibration     8          0.703              1.643              1.331
 Vibration     9          0.734              1.556              1.125
 Vibration    10          0.746              1.524              1.060
 Vibration    11          0.794              1.398              0.849
 Vibration    12          0.801              1.380              0.822
 Vibration    13          0.815              1.345              0.775
 Vibration    14          0.837              1.294              0.709
 Vibration    15          0.880              1.195              0.599
 Vibration    16          0.926              1.096              0.505
 Vibration    17          0.969              1.010              0.432

 Optimization completed.
    -- Stationary point found.
 Normal termination of Gaussian 16 at Sun Nov  4 23:09:03 2018.
