 Gaussian 16, Revision A.03,
 Gaussian 16:  ES64L-G16RevA.03 25-Dec-2016

 ----------------------------------------------------------------------
 #M062X/6-311++G(2d,2p) opt=ModRedundant freq=noraman SCRF=(Solvent=Wat
 er)
 ----------------------------------------------------------------------

 ----------------------------
 L_a1-e4_D_PHI.inp_extract_20
 ----------------------------
 Symbolic Z-matrix:
 Charge =  0 Multiplicity = 1

 SCF Done:  E(RM062X) =  -617.498524786     A.U. after   12 cycles
 SCF Done:  E(RM062X) =  -617.500015794     A.U. after   10 cycles
 SCF Done:  E(RM062X) =  -617.500108290     A.U. after    9 cycles
 SCF Done:  E(RM062X) =  -617.500120124     A.U. after    8 cycles
 SCF Done:  E(RM062X) =  -617.500121558     A.U. after    8 cycles
 SCF Done:  E(RM062X) =  -617.500121825     A.U. after    7 cycles
 Optimization completed.
    -- Stationary point found.
 Normal termination of Gaussian 16 at Sun Nov  4 21:53:21 2018.

 ----------------------------------------------------------------------
 #N Geom=AllCheck Guess=TCheck SCRF=Check GenChk RM062X/6-311++G(2d,2p)
  Freq
 ----------------------------------------------------------------------

 Structure from the checkpoint file:  "L_a1-e4_D_PHI.inp_extract_20.chk"
 ----------------------------
 L_a1-e4_D_PHI.inp_extract_20
 ----------------------------
 Charge =  0 Multiplicity = 1

                         Standard orientation:
 ---------------------------------------------------------------------
 Center     Atomic      Atomic             Coordinates (Angstroms)
 Number     Number       Type             X           Y           Z
 ---------------------------------------------------------------------
      1          6           0       -2.776382   -0.877536   -1.031591
      2          8           0       -1.960363   -1.397770    0.020993
      3          6           0       -2.959126    1.294403    0.171864
      4          8           0        3.177039    1.279247   -0.192438
      5          6           0       -1.198153   -0.421201    0.678697
      6          6           0       -2.066579    0.689283    1.253042
      7          6           0        3.247571   -1.053713    0.480597
      8          8           0       -0.254770    0.126564   -0.225790
      9          6           0        1.763952   -1.200876    0.140945
     10          6           0        3.865528    0.046748   -0.366920
     11          6           0        1.078757    0.154513    0.256502
     12          6           0        1.821080    1.184612   -0.582761
     13          6           0       -3.740752    0.178244   -0.518670
     14          1           0       -2.134166   -0.458417   -1.810653
     15          1           0       -3.302072   -1.735850   -1.443395
     16          1           0       -2.340245    1.812924   -0.563509
     17          1           0       -3.633268    2.031086    0.607113
     18          1           0       -0.675856   -0.953999    1.474049
     19          1           0       -2.682000    0.260246    2.046601
     20          1           0       -1.415773    1.439251    1.704003
     21          1           0        3.777608   -1.990238    0.307347
     22          1           0        3.366566   -0.797393    1.535495
     23          1           0        1.650388   -1.546249   -0.890396
     24          1           0        1.284556   -1.934935    0.789310
     25          1           0        4.899626    0.233654   -0.085969
     26          1           0        3.837783   -0.233955   -1.426856
     27          1           0        1.092044    0.491766    1.299919
     28          1           0        1.376504    2.169309   -0.452601
     29          1           0        1.748209    0.901447   -1.640502
     30          1           0       -4.328201    0.563709   -1.352466
     31          1           0       -4.432324   -0.283555    0.190163
 ---------------------------------------------------------------------

 SCF Done:  E(RM062X) =  -617.500121825     A.U. after    1 cycles

 The electronic state is 1-A.
 Alpha  occ. eigenvalues --  -19.63233 -19.63113 -19.63094 -10.63644 -10.59028
 Alpha  occ. eigenvalues --  -10.58199 -10.58117 -10.57811 -10.53359 -10.53267
 Alpha  occ. eigenvalues --  -10.53042 -10.52999 -10.52887  -1.20018  -1.16767
 Alpha  occ. eigenvalues --   -1.13686  -0.90773  -0.89850  -0.87449  -0.84630
 Alpha  occ. eigenvalues --   -0.74896  -0.73586  -0.73065  -0.71360  -0.66065
 Alpha  occ. eigenvalues --   -0.63946  -0.60319  -0.58295  -0.57575  -0.55108
 Alpha  occ. eigenvalues --   -0.54680  -0.53342  -0.52429  -0.50677  -0.49969
 Alpha  occ. eigenvalues --   -0.48458  -0.47457  -0.46112  -0.45563  -0.44491
 Alpha  occ. eigenvalues --   -0.44063  -0.42665  -0.41317  -0.40462  -0.39622
 Alpha  occ. eigenvalues --   -0.38286  -0.37887  -0.37330  -0.34692  -0.32948
 Alpha  occ. eigenvalues --   -0.32066
 Alpha virt. eigenvalues --   -0.00060   0.00755   0.00767   0.01081   0.02166
 Alpha virt. eigenvalues --    0.02408   0.02635   0.03454   0.03561   0.04351
 Alpha virt. eigenvalues --    0.04548   0.04676   0.05598   0.05795   0.06856

 Mulliken charges:
               1
     1  C   -0.167153
     2  O   -0.290067
     3  C   -0.344750
     4  O   -0.335572
     5  C   -0.117243
     6  C   -0.257234
     7  C   -0.343778
     8  O   -0.296509
     9  C   -0.151405
    10  C   -0.199376
    11  C   -0.206508
    12  C   -0.274426
    13  C   -0.390238
    14  H    0.163167
    15  H    0.211091
    16  H    0.181848
    17  H    0.172751
    18  H    0.268601
    19  H    0.190751
    20  H    0.161041
    21  H    0.176152
    22  H    0.165200
    23  H    0.215926
    24  H    0.154918
    25  H    0.208853
    26  H    0.137839
    27  H    0.244299
    28  H    0.197159
    29  H    0.189990
    30  H    0.168205
    31  H    0.166467
 Sum of Mulliken charges =  -0.00000

 Dipole moment (field-independent basis, Debye):
    X=             -0.4672    Y=             -0.3349    Z=              0.6035  Tot=              0.8335
 Quadrupole moment (field-independent basis, Debye-Ang):
   XX=            -75.2445   YY=            -85.2815   ZZ=            -77.0554
   XY=            -10.5617   XZ=              0.5043   YZ=              0.5036

  Exact polarizability: 176.951  -2.081 155.159   3.447   0.673 153.450
 Approx polarizability: 147.893   0.219 141.032   2.522   0.101 142.851

 ******    1 imaginary frequencies (negative Signs) ******

                      1                      2                      3
                      A                      A                      A
 Frequencies --    -37.2272                49.8785                78.6632
 Red. masses --      4.3409                 3.5558                 3.3886
 Frc consts  --      0.0035                 0.0052                 0.0124
 IR Inten    --      1.8287                 2.1753                 0.7477

                      4                      5                      6
                      A                      A                      A
 Frequencies --    138.7458               184.4842               231.5138
 Red. masses --      3.2372                 3.0483                 2.6638
 Frc consts  --      0.0367                 0.0611                 0.0841
 IR Inten    --      3.4989                 1.5782                 3.2661

                      7                      8                      9
                      A                      A                      A
 Frequencies --    247.4043               269.1884               338.6669
 Red. masses --      1.9760                 2.9937                 2.6345
 Frc consts  --      0.0713                 0.1278                 0.1780
 IR Inten    --      4.6866                 2.1023                 3.0589

                     10                     11                     12
                      A                      A                      A
 Frequencies --    367.0507               415.8752               431.6331
 Red. masses --      2.0800                 2.2780                 3.2877
 Frc consts  --      0.1651                 0.2321                 0.3609
 IR Inten    --     10.6169                 9.4834                10.3983

                     13                     14                     15
                      A                      A                      A
 Frequencies --    454.2508               465.8690               493.5742
 Red. masses --      3.4283                 4.5485                 2.3964
 Frc consts  --      0.4168                 0.5816                 0.3440
 IR Inten    --      0.7520                 6.2280                 0.2055

                     16                     17                     18
                      A                      A                      A
 Frequencies --    520.9306               543.3449               597.9180
 Red. masses --      3.1771                 2.4368                 2.0702
 Frc consts  --      0.5080                 0.4239                 0.4361
 IR Inten    --      5.9561                14.4244                 8.0810

                     19                     20                     21
                      A                      A                      A
 Frequencies --    723.8140               827.2456               836.1442
 Red. masses --      2.9145                 2.2773                 1.5857
 Frc consts  --      0.8997                 0.9182                 0.6532
 IR Inten    --     10.3421                 1.1842                 0.9251

                     22                     23                     24
                      A                      A                      A
 Frequencies --    848.6644               875.8499               893.5937
 Red. masses --      2.9432                 1.4047                 2.3879
 Frc consts  --      1.2490                 0.6349                 1.1234
 IR Inten    --      2.2627                14.2367                11.0838

                     25                     26                     27
                      A                      A                      A
 Frequencies --    900.8657               902.7912               937.5582
 Red. masses --      2.3525                 2.4195                 1.6684
 Frc consts  --      1.1248                 1.1618                 0.8641
 IR Inten    --      1.5550                51.1795                27.5180

                     28                     29                     30
                      A                      A                      A
 Frequencies --    942.2825               981.6191               999.2082
 Red. masses --      2.1116                 2.4489                 1.4364
 Frc consts  --      1.1047                 1.3903                 0.8450
 IR Inten    --     36.4972                27.5520                23.7709

                     31                     32                     33
                      A                      A                      A
 Frequencies --   1023.0484              1046.5680              1056.2247
 Red. masses --      2.2046                 2.3087                 1.7214
 Frc consts  --      1.3595                 1.4899                 1.1315
 IR Inten    --     57.8307                85.5963                34.2445

                     34                     35                     36
                      A                      A                      A
 Frequencies --   1068.2254              1074.8860              1128.2614
 Red. masses --      1.5265                 2.2922                 4.0777
 Frc consts  --      1.0263                 1.5604                 3.0583
 IR Inten    --     85.9092                16.8638               376.8756

                     37                     38                     39
                      A                      A                      A
 Frequencies --   1147.9091              1153.0407              1164.9719
 Red. masses --      2.4085                 3.1492                 3.1832
 Frc consts  --      1.8698                 2.4668                 2.5453
 IR Inten    --     25.0475               149.9250                64.8265

                     40                     41                     42
                      A                      A                      A
 Frequencies --   1174.3238              1190.8195              1210.3003
 Red. masses --      2.4839                 2.5116                 1.4667
 Frc consts  --      2.0182                 2.0985                 1.2658
 IR Inten    --     27.2703                55.2917                23.6890

                     43                     44                     45
                      A                      A                      A
 Frequencies --   1212.1240              1240.6788              1247.7864
 Red. masses --      1.4293                 1.8193                 1.5011
 Frc consts  --      1.2373                 1.6500                 1.3770
 IR Inten    --     15.3350                76.9441                40.7802

                     46                     47                     48
                      A                      A                      A
 Frequencies --   1286.3915              1303.7437              1319.2819
 Red. masses --      1.2181                 1.1890                 1.1508
 Frc consts  --      1.1876                 1.1907                 1.1801
 IR Inten    --     19.4410                11.3986                 7.5108

                     49                     50                     51
                      A                      A                      A
 Frequencies --   1330.4180              1344.4263              1353.0393
 Red. masses --      1.2818                 1.2657                 1.2228
 Frc consts  --      1.3367                 1.3479                 1.3190
 IR Inten    --     10.5641                 4.2952                17.4847

                     52                     53                     54
                      A                      A                      A
 Frequencies --   1360.4466              1381.2762              1384.6615
 Red. masses --      1.3246                 1.4324                 1.5272
 Frc consts  --      1.4445                 1.6102                 1.7252
 IR Inten    --      5.6791                 7.1048                 7.1111

                     55                     56                     57
                      A                      A                      A
 Frequencies --   1390.1013              1397.1043              1402.3756
 Red. masses --      1.6382                 1.5057                 1.3519
 Frc consts  --      1.8651                 1.7316                 1.5664
 IR Inten    --      6.9149                29.7735                 8.7618

                     58                     59                     60
                      A                      A                      A
 Frequencies --   1410.6367              1417.1266              1430.3775
 Red. masses --      1.3706                 1.3493                 1.4247
 Frc consts  --      1.6069                 1.5966                 1.7174
 IR Inten    --     20.4855                15.5788                 2.4023

                     61                     62                     63
                      A                      A                      A
 Frequencies --   1450.3317              1476.7205              1479.5688
 Red. masses --      1.3146                 1.1038                 1.0932
 Frc consts  --      1.6293                 1.4182                 1.4101
 IR Inten    --     10.5182                 4.9019                 7.8991

                     64                     65                     66
                      A                      A                      A
 Frequencies --   1483.3957              1493.8397              1495.8384
 Red. masses --      1.0869                 1.1133                 1.1060
 Frc consts  --      1.4092                 1.4638                 1.4581
 IR Inten    --      8.5916                 9.6527                15.8557

                     67                     68                     69
                      A                      A                      A
 Frequencies --   1501.5947              1512.7223              1514.0388
 Red. masses --      1.0869                 1.0940                 1.1016
 Frc consts  --      1.4439                 1.4749                 1.4878
 IR Inten    --      0.5099                 4.5472                 9.4788

                     70                     71                     72
                      A                      A                      A
 Frequencies --   3016.8255              3021.8178              3028.7088
 Red. masses --      1.0723                 1.0706                 1.0793
 Frc consts  --      5.7501                 5.7599                 5.8332
 IR Inten    --     17.5953                75.8258                76.5637

                     73                     74                     75
                      A                      A                      A
 Frequencies --   3058.2983              3059.0965              3064.7159
 Red. masses --      1.0681                 1.0640                 1.0629
 Frc consts  --      5.8863                 5.8666                 5.8820
 IR Inten    --     37.8132                36.5155                50.1852

                     76                     77                     78
                      A                      A                      A
 Frequencies --   3069.3729              3070.6697              3072.0913
 Red. masses --      1.0637                 1.0625                 1.0607
 Frc consts  --      5.9046                 5.9025                 5.8978
 IR Inten    --     11.9853                43.6191                37.5323

                     79                     80                     81
                      A                      A                      A
 Frequencies --   3096.6068              3112.5558              3113.3263
 Red. masses --      1.0875                 1.0988                 1.0976
 Frc consts  --      6.1440                 6.2719                 6.2683
 IR Inten    --     43.5065                70.6723                21.2370

                     82                     83                     84
                      A                      A                      A
 Frequencies --   3115.6940              3121.6613              3121.9642
 Red. masses --      1.1016                 1.1020                 1.1051
 Frc consts  --      6.3005                 6.3272                 6.3461
 IR Inten    --     40.8679                51.4527                65.5658

                     85                     86                     87
                      A                      A                      A
 Frequencies --   3133.0833              3135.9588              3137.6985
 Red. masses --      1.0948                 1.0954                 1.0995
 Frc consts  --      6.3320                 6.3467                 6.3780
 IR Inten    --     44.9142                40.6430                42.7705

 - Thermochemistry -
 -------------------
 Temperature   298.150 Kelvin.  Pressure   1.00000 Atm.
 Atom     1 has atomic number  6 and mass  12.00000

 Molecular mass:   186.12559 amu.
 Principal axes and moments of inertia in atomic units:
                           1         2         3
     Eigenvalues --   904.026134617.196894953.35519
           X            0.99985  -0.01723   0.00141
           Y            0.01722   0.99982   0.00828
           Z           -0.00155  -0.00826   0.99996
 This molecule is an asymmetric top.
 Rotational symmetry number  1.
 Warning -- assumption of classical behavior for rotation
           may cause significant error
 Rotational temperatures (Kelvin)      0.09581     0.01876     0.01749
 Rotational constants (GHZ):           1.99634     0.39087     0.36435
    1 imaginary frequencies ignored.
 Zero-point vibrational energy     736345.8 (Joules/Mol)
                                  175.99086 (Kcal/Mol)
 Warning -- explicit consideration of  17 degrees of freedom as
           vibrations may cause significant error
 Vibrational temperatures:     71.76   113.18   199.62   265.43   333.10
          (Kelvin)            355.96   387.30   487.27   528.10   598.35
                              621.02   653.57   670.28   710.14   749.50
                              781.75   860.27  1041.41  1190.22  1203.03
                             1221.04  1260.15  1285.68  1296.14  1298.92
                             1348.94  1355.73  1412.33  1437.64  1471.94
                             1505.78  1519.67  1536.94  1546.52  1623.32
                             1651.59  1658.97  1676.13  1689.59  1713.32
                             1741.35  1743.98  1785.06  1795.29  1850.83
                             1875.80  1898.15  1914.17  1934.33  1946.72
                             1957.38  1987.35  1992.22  2000.05  2010.12
                             2017.71  2029.59  2038.93  2057.99  2086.70
                             2124.67  2128.77  2134.28  2149.30  2152.18
                             2160.46  2176.47  2178.36  4340.54  4347.72
                             4357.64  4400.21  4401.36  4409.44  4416.14
                             4418.01  4420.05  4455.33  4478.27  4479.38
                             4482.79  4491.37  4491.81  4507.81  4511.95
                             4514.45

 Zero-point correction=                           0.280459 (Hartree/Particle)
 Thermal correction to Energy=                    0.291413
 Thermal correction to Enthalpy=                  0.292357
 Thermal correction to Gibbs Free Energy=         0.243417
 Sum of electronic and zero-point Energies=           -617.219663
 Sum of electronic and thermal Energies=              -617.208709
 Sum of electronic and thermal Enthalpies=            -617.207764
 Sum of electronic and thermal Free Energies=         -617.256704

                     E (Thermal)             CV                S
                      KCal/Mol        Cal/Mol-Kelvin    Cal/Mol-Kelvin
 Total                  182.865             44.799            103.003
 Electronic               0.000              0.000              0.000
 Translational            0.889              2.981             41.570
 Rotational               0.889              2.981             31.403
 Vibrational            181.087             38.837             30.030
 Vibration     1          0.595              1.978              4.822
 Vibration     2          0.600              1.964              3.924
 Vibration     3          0.614              1.915              2.821
 Vibration     4          0.631              1.861              2.283
 Vibration     5          0.653              1.793              1.867
 Vibration     6          0.661              1.767              1.749
 Vibration     7          0.674              1.730              1.601
 Vibration     8          0.719              1.598              1.218
 Vibration     9          0.740              1.540              1.092
 Vibration    10          0.779              1.436              0.906
 Vibration    11          0.793              1.401              0.853
 Vibration    12          0.813              1.351              0.783
 Vibration    13          0.823              1.326              0.749
 Vibration    14          0.849              1.264              0.674
 Vibration    15          0.876              1.204              0.608
 Vibration    16          0.898              1.154              0.558
 Vibration    17          0.956              1.036              0.453

 Optimization completed.
    -- Stationary point found.
 Normal termination of Gaussian 16 at Sun Nov  4 22:47:21 2018.
