 Gaussian 16, Revision A.03,
 Gaussian 16:  ES64L-G16RevA.03 25-Dec-2016

 ----------------------------------------------------------------------
 #M062X/6-311++G(2d,2p) opt=ModRedundant freq=noraman SCRF=(Solvent=Wat
 er)
 ----------------------------------------------------------------------

 ----------------------------
 L_a1-e4_D_PHI.inp_extract_23
 ----------------------------
 Symbolic Z-matrix:
 Charge =  0 Multiplicity = 1

 SCF Done:  E(RM062X) =  -617.502047700     A.U. after   12 cycles
 SCF Done:  E(RM062X) =  -617.503548733     A.U. after   10 cycles
 SCF Done:  E(RM062X) =  -617.503644117     A.U. after    9 cycles
 SCF Done:  E(RM062X) =  -617.503655433     A.U. after    9 cycles
 SCF Done:  E(RM062X) =  -617.503657035     A.U. after    8 cycles
 SCF Done:  E(RM062X) =  -617.503657448     A.U. after    8 cycles
 SCF Done:  E(RM062X) =  -617.503657499     A.U. after    6 cycles
 Optimization completed.
    -- Stationary point found.
 Normal termination of Gaussian 16 at Sun Nov  4 21:57:30 2018.

 ----------------------------------------------------------------------
 #N Geom=AllCheck Guess=TCheck SCRF=Check GenChk RM062X/6-311++G(2d,2p)
  Freq
 ----------------------------------------------------------------------

 Structure from the checkpoint file:  "L_a1-e4_D_PHI.inp_extract_23.chk"
 ----------------------------
 L_a1-e4_D_PHI.inp_extract_23
 ----------------------------
 Charge =  0 Multiplicity = 1

                         Standard orientation:
 ---------------------------------------------------------------------
 Center     Atomic      Atomic             Coordinates (Angstroms)
 Number     Number       Type             X           Y           Z
 ---------------------------------------------------------------------
      1          6           0       -2.526673    1.338432   -0.463373
      2          8           0       -1.780529    0.440801   -1.286956
      3          6           0       -3.091695   -0.537305    1.077077
      4          8           0        3.171647   -1.014926   -0.539576
      5          6           0       -1.203734   -0.631836   -0.574251
      6          6           0       -2.256474   -1.438532    0.168895
      7          6           0        3.163509    1.307859    0.176857
      8          8           0       -0.266421   -0.157850    0.362093
      9          6           0        1.707801    1.171525    0.624561
     10          6           0        3.859533   -0.042623    0.238307
     11          6           0        1.032605    0.067269   -0.168217
     12          6           0        1.852062   -1.215986   -0.070407
     13          6           0       -3.656113    0.622186    0.257764
     14          1           0       -1.854210    1.809113    0.258636
     15          1           0       -2.903137    2.106374   -1.135280
     16          1           0       -2.464452   -0.144968    1.880129
     17          1           0       -3.892839   -1.111198    1.541412
     18          1           0       -0.707205   -1.237697   -1.333971
     19          1           0       -2.900492   -1.908179   -0.576895
     20          1           0       -1.760302   -2.229044    0.730724
     21          1           0        3.695104    2.020996    0.806852
     22          1           0        3.203966    1.679640   -0.849163
     23          1           0        1.668154    0.904590    1.684561
     24          1           0        1.162148    2.106499    0.497354
     25          1           0        4.868543    0.011551   -0.164416
     26          1           0        3.917406   -0.389682    1.277145
     27          1           0        0.956982    0.369045   -1.218115
     28          1           0        1.414842   -2.009094   -0.675398
     29          1           0        1.865413   -1.542637    0.977136
     30          1           0       -4.186470    1.332879    0.892291
     31          1           0       -4.365952    0.241680   -0.480761
 ---------------------------------------------------------------------

 SCF Done:  E(RM062X) =  -617.503657499     A.U. after    1 cycles

 The electronic state is 1-A.
 Alpha  occ. eigenvalues --  -19.63386 -19.63230 -19.62905 -10.63596 -10.58820
 Alpha  occ. eigenvalues --  -10.58111 -10.58099 -10.57687 -10.53349 -10.53299
 Alpha  occ. eigenvalues --  -10.53077 -10.53008 -10.52848  -1.20140  -1.16719
 Alpha  occ. eigenvalues --   -1.13525  -0.91101  -0.89808  -0.87130  -0.84616
 Alpha  occ. eigenvalues --   -0.74692  -0.73976  -0.72973  -0.71073  -0.65854
 Alpha  occ. eigenvalues --   -0.64197  -0.60046  -0.58348  -0.57443  -0.56369
 Alpha  occ. eigenvalues --   -0.54066  -0.53281  -0.52079  -0.51273  -0.49443
 Alpha  occ. eigenvalues --   -0.48005  -0.47094  -0.46078  -0.45488  -0.45036
 Alpha  occ. eigenvalues --   -0.44125  -0.42700  -0.40809  -0.40389  -0.39125
 Alpha  occ. eigenvalues --   -0.38438  -0.38316  -0.36419  -0.35702  -0.33306
 Alpha  occ. eigenvalues --   -0.31937
 Alpha virt. eigenvalues --   -0.00050   0.00753   0.00866   0.01016   0.02131
 Alpha virt. eigenvalues --    0.02457   0.02617   0.03414   0.03617   0.04366
 Alpha virt. eigenvalues --    0.04566   0.04725   0.05440   0.06028   0.06894

 Mulliken charges:
               1
     1  C   -0.149300
     2  O   -0.283761
     3  C   -0.329551
     4  O   -0.331280
     5  C   -0.115786
     6  C   -0.330436
     7  C   -0.374707
     8  O   -0.255609
     9  C   -0.207221
    10  C   -0.158997
    11  C   -0.168353
    12  C   -0.303446
    13  C   -0.345290
    14  H    0.138772
    15  H    0.204181
    16  H    0.179279
    17  H    0.184482
    18  H    0.257006
    19  H    0.187427
    20  H    0.169576
    21  H    0.184195
    22  H    0.163843
    23  H    0.206941
    24  H    0.139756
    25  H    0.209832
    26  H    0.136411
    27  H    0.273905
    28  H    0.185537
    29  H    0.200525
    30  H    0.168318
    31  H    0.163752
 Sum of Mulliken charges =  -0.00000

 Dipole moment (field-independent basis, Debye):
    X=             -0.6232    Y=              0.7938    Z=              1.8954  Tot=              2.1473
 Quadrupole moment (field-independent basis, Debye-Ang):
   XX=            -75.2991   YY=            -77.4487   ZZ=            -84.1705
   XY=              5.7247   XZ=              2.2727   YZ=              0.3471

  Exact polarizability: 175.955   0.905 159.795  -0.383   0.037 150.070
 Approx polarizability: 147.004   0.496 141.949   0.275   1.010 142.849

                      1                      2                      3
                      A                      A                      A
 Frequencies --     23.5109                47.3331                80.0532
 Red. masses --      4.3294                 3.4672                 3.4000
 Frc consts  --      0.0014                 0.0046                 0.0128
 IR Inten    --      0.9406                 0.8622                 0.7305

                      4                      5                      6
                      A                      A                      A
 Frequencies --    139.4898               183.5181               231.7346
 Red. masses --      3.5690                 3.0735                 2.7247
 Frc consts  --      0.0409                 0.0610                 0.0862
 IR Inten    --      4.1363                 0.2234                 9.0241

                      7                      8                      9
                      A                      A                      A
 Frequencies --    254.8269               282.1658               341.2837
 Red. masses --      2.1419                 2.2432                 2.6242
 Frc consts  --      0.0819                 0.1052                 0.1801
 IR Inten    --      2.5214                 2.1478                 9.5013

                     10                     11                     12
                      A                      A                      A
 Frequencies --    372.0843               403.1167               433.2172
 Red. masses --      2.3791                 2.7758                 3.0336
 Frc consts  --      0.1941                 0.2658                 0.3354
 IR Inten    --     21.1670                 5.7997                 9.7563

                     13                     14                     15
                      A                      A                      A
 Frequencies --    451.5381               467.5543               479.8153
 Red. masses --      3.7123                 3.2085                 2.5054
 Frc consts  --      0.4459                 0.4132                 0.3398
 IR Inten    --      2.3836                 0.2805                 0.5499

                     16                     17                     18
                      A                      A                      A
 Frequencies --    531.5737               579.4200               592.1173
 Red. masses --      2.2230                 3.4354                 2.0262
 Frc consts  --      0.3701                 0.6795                 0.4185
 IR Inten    --      2.3726                14.7742                 5.6173

                     19                     20                     21
                      A                      A                      A
 Frequencies --    724.7599               832.7976               834.6520
 Red. masses --      2.9818                 2.3708                 1.5077
 Frc consts  --      0.9228                 0.9688                 0.6188
 IR Inten    --      3.8836                 0.8650                 4.2589

                     22                     23                     24
                      A                      A                      A
 Frequencies --    845.0668               879.7414               893.3979
 Red. masses --      3.0584                 1.4128                 2.2448
 Frc consts  --      1.2869                 0.6442                 1.0557
 IR Inten    --      9.2672                10.8611                16.7464

                     25                     26                     27
                      A                      A                      A
 Frequencies --    899.2137               905.2910               932.9379
 Red. masses --      2.3927                 2.4121                 1.6292
 Frc consts  --      1.1399                 1.1647                 0.8355
 IR Inten    --     25.9892                13.0569                22.9555

                     28                     29                     30
                      A                      A                      A
 Frequencies --    944.0768               986.4634               995.0218
 Red. masses --      2.3157                 2.3772                 1.3780
 Frc consts  --      1.2161                 1.3630                 0.8038
 IR Inten    --     45.1038                61.9461                 8.3449

                     31                     32                     33
                      A                      A                      A
 Frequencies --   1026.0653              1047.6946              1053.8032
 Red. masses --      2.2493                 2.2594                 1.7626
 Frc consts  --      1.3952                 1.4612                 1.1532
 IR Inten    --     52.0109                64.1238                53.7085

                     34                     35                     36
                      A                      A                      A
 Frequencies --   1064.8422              1072.9356              1117.5024
 Red. masses --      1.4897                 2.3557                 4.1406
 Frc consts  --      0.9953                 1.5978                 3.0466
 IR Inten    --     62.2326                28.5546               336.3856

                     37                     38                     39
                      A                      A                      A
 Frequencies --   1149.6797              1152.8974              1165.4928
 Red. masses --      3.0831                 2.5673                 3.3229
 Frc consts  --      2.4010                 2.0105                 2.6594
 IR Inten    --    132.2517                16.8133               116.2480

                     40                     41                     42
                      A                      A                      A
 Frequencies --   1166.6875              1193.3815              1209.7199
 Red. masses --      2.6259                 2.1308                 1.4303
 Frc consts  --      2.1059                 1.7880                 1.2332
 IR Inten    --     46.2525                41.9158                11.0282

                     43                     44                     45
                      A                      A                      A
 Frequencies --   1219.8095              1234.0534              1251.1264
 Red. masses --      1.6563                 1.6386                 1.4818
 Frc consts  --      1.4520                 1.4702                 1.3666
 IR Inten    --     25.9480                72.4850                21.4649

                     46                     47                     48
                      A                      A                      A
 Frequencies --   1287.8229              1304.9740              1318.9897
 Red. masses --      1.2213                 1.1873                 1.1478
 Frc consts  --      1.1934                 1.1913                 1.1765
 IR Inten    --     16.5705                17.0767                 7.1857

                     49                     50                     51
                      A                      A                      A
 Frequencies --   1329.4090              1344.7934              1348.2510
 Red. masses --      1.2834                 1.2627                 1.2331
 Frc consts  --      1.3364                 1.3455                 1.3206
 IR Inten    --      7.2935                 8.0329                16.2206

                     52                     53                     54
                      A                      A                      A
 Frequencies --   1359.3448              1382.4445              1385.7731
 Red. masses --      1.3357                 1.4520                 1.4705
 Frc consts  --      1.4542                 1.6350                 1.6638
 IR Inten    --      4.8487                 1.8600                 3.6117

                     55                     56                     57
                      A                      A                      A
 Frequencies --   1391.7811              1397.8545              1400.2317
 Red. masses --      1.7106                 1.4614                 1.2986
 Frc consts  --      1.9523                 1.6824                 1.5001
 IR Inten    --     19.9641                 8.6810                 3.0470

                     58                     59                     60
                      A                      A                      A
 Frequencies --   1406.1732              1422.1478              1431.9697
 Red. masses --      1.3687                 1.4679                 1.3690
 Frc consts  --      1.5946                 1.7492                 1.6539
 IR Inten    --     31.5052                10.6440                17.4479

                     61                     62                     63
                      A                      A                      A
 Frequencies --   1441.4774              1476.1832              1481.9414
 Red. masses --      1.3712                 1.1066                 1.0919
 Frc consts  --      1.6787                 1.4208                 1.4128
 IR Inten    --      1.3780                 5.2842                 7.5245

                     64                     65                     66
                      A                      A                      A
 Frequencies --   1482.1294              1495.4508              1495.8992
 Red. masses --      1.0858                 1.1058                 1.1083
 Frc consts  --      1.4053                 1.4571                 1.4612
 IR Inten    --      8.5367                13.5713                 9.3153

                     67                     68                     69
                      A                      A                      A
 Frequencies --   1501.5625              1510.7998              1514.5073
 Red. masses --      1.0924                 1.0933                 1.1025
 Frc consts  --      1.4511                 1.4703                 1.4899
 IR Inten    --      0.9119                 4.0950                10.5000

                     70                     71                     72
                      A                      A                      A
 Frequencies --   3018.3934              3021.9401              3046.0132
 Red. masses --      1.0688                 1.0705                 1.0810
 Frc consts  --      5.7372                 5.7597                 5.9093
 IR Inten    --     34.6059                88.1957                22.2387

                     73                     74                     75
                      A                      A                      A
 Frequencies --   3058.2481              3059.5610              3064.8180
 Red. masses --      1.0684                 1.0666                 1.0628
 Frc consts  --      5.8877                 5.8826                 5.8818
 IR Inten    --     31.4163                49.3021                49.2440

                     76                     77                     78
                      A                      A                      A
 Frequencies --   3071.0985              3071.6063              3075.9859
 Red. masses --      1.0634                 1.0621                 1.0642
 Frc consts  --      5.9093                 5.9042                 5.9326
 IR Inten    --     30.8167                39.5321                12.9313

                     79                     80                     81
                      A                      A                      A
 Frequencies --   3089.6990              3113.7043              3114.7828
 Red. masses --      1.0840                 1.0977                 1.0986
 Frc consts  --      6.0969                 6.2704                 6.2798
 IR Inten    --     73.0104                36.8286                45.3112

                     82                     83                     84
                      A                      A                      A
 Frequencies --   3119.0198              3121.9031              3123.9768
 Red. masses --      1.1020                 1.1027                 1.0957
 Frc consts  --      6.3162                 6.3320                 6.3002
 IR Inten    --     60.1823                56.7568                36.8724

                     85                     86                     87
                      A                      A                      A
 Frequencies --   3128.7353              3135.7069              3136.5594
 Red. masses --      1.1039                 1.0949                 1.0994
 Frc consts  --      6.3669                 6.3430                 6.3727
 IR Inten    --     46.3978                44.4867                45.1154

 - Thermochemistry -
 -------------------
 Temperature   298.150 Kelvin.  Pressure   1.00000 Atm.
 Atom     1 has atomic number  6 and mass  12.00000

 Molecular mass:   186.12559 amu.
 Principal axes and moments of inertia in atomic units:
                           1         2         3
     Eigenvalues --   910.775314528.818344861.12541
           X            0.99996   0.00865  -0.00055
           Y           -0.00865   0.99996   0.00002
           Z            0.00055  -0.00002   1.00000
 This molecule is an asymmetric top.
 Rotational symmetry number  1.
 Warning -- assumption of classical behavior for rotation
           may cause significant error
 Rotational temperatures (Kelvin)      0.09510     0.01913     0.01782
 Rotational constants (GHZ):           1.98154     0.39850     0.37126
 Zero-point vibrational energy     736762.8 (Joules/Mol)
                                  176.09054 (Kcal/Mol)
 Warning -- explicit consideration of  18 degrees of freedom as
           vibrations may cause significant error
 Vibrational temperatures:     33.83    68.10   115.18   200.69   264.04
          (Kelvin)            333.41   366.64   405.97   491.03   535.35
                              580.00   623.30   649.66   672.71   690.35
                              764.82   833.66   851.92  1042.77  1198.21
                             1200.88  1215.86  1265.75  1285.40  1293.77
                             1302.51  1342.29  1358.32  1419.30  1431.61
                             1476.28  1507.40  1516.19  1532.07  1543.71
                             1607.84  1654.13  1658.76  1676.88  1678.60
                             1717.01  1740.52  1755.03  1775.53  1800.09
                             1852.89  1877.57  1897.73  1912.72  1934.86
                             1939.83  1955.79  1989.03  1993.82  2002.46
                             2011.20  2014.62  2023.17  2046.15  2060.28
                             2073.96  2123.90  2132.18  2132.45  2151.62
                             2152.27  2160.41  2173.70  2179.04  4342.79
                             4347.90  4382.53  4400.14  4402.03  4409.59
                             4418.63  4419.36  4425.66  4445.39  4479.93
                             4481.48  4487.57  4491.72  4494.71  4501.55
                             4511.58  4512.81

 Zero-point correction=                           0.280618 (Hartree/Particle)
 Thermal correction to Energy=                    0.292427
 Thermal correction to Enthalpy=                  0.293371
 Thermal correction to Gibbs Free Energy=         0.241495
 Sum of electronic and zero-point Energies=           -617.223039
 Sum of electronic and thermal Energies=              -617.211231
 Sum of electronic and thermal Enthalpies=            -617.210287
 Sum of electronic and thermal Free Energies=         -617.262162

                     E (Thermal)             CV                S
                      KCal/Mol        Cal/Mol-Kelvin    Cal/Mol-Kelvin
 Total                  183.500             46.707            109.181
 Electronic               0.000              0.000              0.000
 Translational            0.889              2.981             41.570
 Rotational               0.889              2.981             31.373
 Vibrational            181.723             40.746             36.239
 Vibration     1          0.593              1.985              6.313
 Vibration     2          0.595              1.979              4.926
 Vibration     3          0.600              1.963              3.890
 Vibration     4          0.615              1.914              2.811
 Vibration     5          0.631              1.862              2.292
 Vibration     6          0.653              1.792              1.865
 Vibration     7          0.665              1.755              1.697
 Vibration     8          0.681              1.707              1.521
 Vibration     9          0.721              1.593              1.206
 Vibration    10          0.744              1.529              1.071
 Vibration    11          0.769              1.463              0.951
 Vibration    12          0.794              1.398              0.848
 Vibration    13          0.810              1.357              0.791
 Vibration    14          0.825              1.322              0.744
 Vibration    15          0.836              1.295              0.711
 Vibration    16          0.887              1.180              0.584
 Vibration    17          0.936              1.076              0.486
 Vibration    18          0.950              1.049              0.463

 Optimization completed.
    -- Stationary point found.
 Normal termination of Gaussian 16 at Sun Nov  4 22:57:31 2018.
