 Gaussian 16, Revision A.03,
 Gaussian 16:  ES64L-G16RevA.03 25-Dec-2016

 ----------------------------------------------------------------------
 #M062X/6-311++G(2d,2p) opt=ModRedundant freq=noraman SCRF=(Solvent=Wat
 er)
 ----------------------------------------------------------------------

 ----------------------------
 L_a1-e4_D_PHI.inp_extract_13
 ----------------------------
 Symbolic Z-matrix:
 Charge =  0 Multiplicity = 1

 SCF Done:  E(RM062X) =  -617.491749408     A.U. after   12 cycles
 SCF Done:  E(RM062X) =  -617.492423888     A.U. after   11 cycles
 SCF Done:  E(RM062X) =  -617.493190050     A.U. after   10 cycles
 SCF Done:  E(RM062X) =  -617.493377307     A.U. after    9 cycles
 SCF Done:  E(RM062X) =  -617.493402846     A.U. after    8 cycles
 SCF Done:  E(RM062X) =  -617.493411597     A.U. after    9 cycles
 SCF Done:  E(RM062X) =  -617.493420151     A.U. after    9 cycles
 SCF Done:  E(RM062X) =  -617.493424540     A.U. after    8 cycles
 SCF Done:  E(RM062X) =  -617.493424525     A.U. after    8 cycles
 SCF Done:  E(RM062X) =  -617.493425677     A.U. after    8 cycles
 SCF Done:  E(RM062X) =  -617.493425573     A.U. after    7 cycles
 Optimization completed.
    -- Stationary point found.
 Normal termination of Gaussian 16 at Sun Nov  4 22:16:23 2018.

 ----------------------------------------------------------------------
 #N Geom=AllCheck Guess=TCheck SCRF=Check GenChk RM062X/6-311++G(2d,2p)
  Freq
 ----------------------------------------------------------------------

 Structure from the checkpoint file:  "L_a1-e4_D_PHI.inp_extract_13.chk"
 ----------------------------
 L_a1-e4_D_PHI.inp_extract_13
 ----------------------------
 Charge =  0 Multiplicity = 1

                         Standard orientation:
 ---------------------------------------------------------------------
 Center     Atomic      Atomic             Coordinates (Angstroms)
 Number     Number       Type             X           Y           Z
 ---------------------------------------------------------------------
      1          6           0        2.622646   -1.211689   -0.188468
      2          8           0        2.464677   -0.245955   -1.223774
      3          6           0        2.040645    0.470818    1.531440
      4          8           0       -2.610572   -1.371200    0.563761
      5          6           0        1.459153    0.705553   -0.975702
      6          6           0        1.673746    1.403215    0.370575
      7          6           0       -3.036048    1.018678    0.475459
      8          8           0        0.199431    0.091535   -1.189865
      9          6           0       -1.830544    1.201851   -0.446942
     10          6           0       -3.602716   -0.382739    0.314695
     11          6           0       -0.828107    0.079116   -0.212445
     12          6           0       -1.527697   -1.268972   -0.340542
     13          6           0        3.091446   -0.544190    1.089831
     14          1           0        1.673688   -1.734055   -0.025653
     15          1           0        3.347348   -1.931185   -0.562197
     16          1           0        1.167433   -0.071750    1.895715
     17          1           0        2.405094    1.069631    2.365675
     18          1           0        1.578442    1.434983   -1.776057
     19          1           0        2.510604    2.083794    0.204019
     20          1           0        0.811611    2.024561    0.611321
     21          1           0       -3.809195    1.753738    0.251499
     22          1           0       -2.736147    1.161713    1.515937
     23          1           0       -2.150262    1.152893   -1.491646
     24          1           0       -1.358719    2.172975   -0.293308
     25          1           0       -4.405641   -0.572154    1.023729
     26          1           0       -3.996121   -0.515745   -0.700535
     27          1           0       -0.426041    0.154566    0.796134
     28          1           0       -0.836620   -2.078078   -0.110421
     29          1           0       -1.880125   -1.390618   -1.372479
     30          1           0        3.257026   -1.293742    1.863710
     31          1           0        4.044185   -0.046410    0.896173
 ---------------------------------------------------------------------

 SCF Done:  E(RM062X) =  -617.493425573     A.U. after    1 cycles

 The electronic state is 1-A.
 Alpha  occ. eigenvalues --  -19.63192 -19.63099 -19.63029 -10.64024 -10.58888
 Alpha  occ. eigenvalues --  -10.58126 -10.58097 -10.57929 -10.53790 -10.53492
 Alpha  occ. eigenvalues --  -10.53308 -10.53170 -10.53003  -1.19781  -1.16718
 Alpha  occ. eigenvalues --   -1.13532  -0.90553  -0.90391  -0.87608  -0.84823
 Alpha  occ. eigenvalues --   -0.75161  -0.74263  -0.73502  -0.70480  -0.65826
 Alpha  occ. eigenvalues --   -0.64717  -0.59578  -0.58472  -0.57970  -0.55824
 Alpha  occ. eigenvalues --   -0.54677  -0.53713  -0.51639  -0.51124  -0.50032
 Alpha  occ. eigenvalues --   -0.48797  -0.47812  -0.46104  -0.45521  -0.45392
 Alpha  occ. eigenvalues --   -0.43758  -0.41600  -0.41296  -0.40793  -0.39110
 Alpha  occ. eigenvalues --   -0.38338  -0.38101  -0.37170  -0.35322  -0.33121
 Alpha  occ. eigenvalues --   -0.31836
 Alpha virt. eigenvalues --   -0.00170   0.00736   0.00909   0.01036   0.02257
 Alpha virt. eigenvalues --    0.02578   0.02674   0.03356   0.03527   0.04756
 Alpha virt. eigenvalues --    0.04794   0.04957   0.05610   0.05768   0.07130

 Mulliken charges:
               1
     1  C   -0.227570
     2  O   -0.261301
     3  C   -0.297243
     4  O   -0.293989
     5  C   -0.092662
     6  C   -0.353086
     7  C   -0.408800
     8  O   -0.329449
     9  C   -0.073492
    10  C   -0.210447
    11  C   -0.380458
    12  C   -0.246856
    13  C   -0.306291
    14  H    0.113149
    15  H    0.224712
    16  H    0.157190
    17  H    0.188206
    18  H    0.253883
    19  H    0.231513
    20  H    0.175274
    21  H    0.182577
    22  H    0.160592
    23  H    0.212698
    24  H    0.148688
    25  H    0.202540
    26  H    0.149160
    27  H    0.346219
    28  H    0.209334
    29  H    0.191217
    30  H    0.161814
    31  H    0.172878
 Sum of Mulliken charges =   0.00000

 Dipole moment (field-independent basis, Debye):
    X=             -0.4901    Y=              2.4249    Z=              2.4211  Tot=              3.4615
 Quadrupole moment (field-independent basis, Debye-Ang):
   XX=            -76.5402   YY=            -78.7513   ZZ=            -85.3224
   XY=             -5.1018   XZ=              8.0115   YZ=              0.6849

  Exact polarizability: 174.373  -3.306 157.611  -1.061  -0.175 153.349
 Approx polarizability: 148.498  -1.441 141.980  -1.618  -1.303 142.692

 ******    1 imaginary frequencies (negative Signs) ******

                      1                      2                      3
                      A                      A                      A
 Frequencies --    -49.6559                42.2438                88.6254
 Red. masses --      4.2055                 3.6654                 3.4784
 Frc consts  --      0.0061                 0.0039                 0.0161
 IR Inten    --      0.8796                 1.3525                 1.5140

                      4                      5                      6
                      A                      A                      A
 Frequencies --    149.5512               197.8201               231.5418
 Red. masses --      3.2790                 2.5005                 2.8920
 Frc consts  --      0.0432                 0.0577                 0.0913
 IR Inten    --      2.6950                 2.8584                 2.1390

                      7                      8                      9
                      A                      A                      A
 Frequencies --    249.3716               301.8926               335.0241
 Red. masses --      2.0141                 3.5929                 2.6377
 Frc consts  --      0.0738                 0.1929                 0.1744
 IR Inten    --      5.8687                 9.5826                 3.6782

                     10                     11                     12
                      A                      A                      A
 Frequencies --    368.4298               385.4164               420.6919
 Red. masses --      2.4703                 2.4600                 2.4856
 Frc consts  --      0.1976                 0.2153                 0.2592
 IR Inten    --     12.3320                 2.3635                 7.8216

                     13                     14                     15
                      A                      A                      A
 Frequencies --    441.3181               461.3509               492.1806
 Red. masses --      3.9131                 3.4671                 2.4503
 Frc consts  --      0.4490                 0.4348                 0.3497
 IR Inten    --      5.4855                 2.1453                 0.1428

                     16                     17                     18
                      A                      A                      A
 Frequencies --    526.2229               548.4749               612.5193
 Red. masses --      3.0320                 1.9875                 2.4237
 Frc consts  --      0.4947                 0.3523                 0.5357
 IR Inten    --      0.7807                 1.9512                25.3880

                     19                     20                     21
                      A                      A                      A
 Frequencies --    731.0950               805.6277               830.0756
 Red. masses --      2.9934                 2.1713                 2.0460
 Frc consts  --      0.9427                 0.8303                 0.8306
 IR Inten    --      7.7407                 1.9533                 2.9845

                     22                     23                     24
                      A                      A                      A
 Frequencies --    837.3746               876.1807               889.9214
 Red. masses --      2.4421                 1.3957                 2.4176
 Frc consts  --      1.0089                 0.6313                 1.1281
 IR Inten    --      8.3244                11.7851                14.2402

                     25                     26                     27
                      A                      A                      A
 Frequencies --    899.2391               903.8079               930.6584
 Red. masses --      2.2750                 2.3670                 1.8066
 Frc consts  --      1.0839                 1.1392                 0.9219
 IR Inten    --     31.4207                28.9192                37.7418

                     28                     29                     30
                      A                      A                      A
 Frequencies --    942.8088               965.8491               995.0373
 Red. masses --      2.1972                 2.3533                 1.4706
 Frc consts  --      1.1507                 1.2934                 0.8579
 IR Inten    --     39.6449                57.9665                10.4129

                     31                     32                     33
                      A                      A                      A
 Frequencies --   1017.0192              1045.0876              1055.4040
 Red. masses --      2.3028                 2.3953                 1.7606
 Frc consts  --      1.4033                 1.5414                 1.1554
 IR Inten    --     19.0946                70.2799                28.7712

                     34                     35                     36
                      A                      A                      A
 Frequencies --   1070.2256              1071.9050              1112.2627
 Red. masses --      2.2023                 1.5820                 2.4560
 Frc consts  --      1.4862                 1.0709                 1.7902
 IR Inten    --     36.4720                94.7555               157.0644

                     37                     38                     39
                      A                      A                      A
 Frequencies --   1146.9028              1150.6081              1163.9830
 Red. masses --      2.6354                 3.0514                 2.5471
 Frc consts  --      2.0425                 2.3802                 2.0333
 IR Inten    --     41.9443               226.5603                 8.1366

                     40                     41                     42
                      A                      A                      A
 Frequencies --   1181.4374              1197.1465              1211.3290
 Red. masses --      2.9406                 2.5183                 1.4663
 Frc consts  --      2.4182                 2.1264                 1.2676
 IR Inten    --     73.5114               121.8842                30.2559

                     43                     44                     45
                      A                      A                      A
 Frequencies --   1219.1546              1242.3098              1248.7316
 Red. masses --      1.5850                 1.7228                 1.5422
 Frc consts  --      1.3880                 1.5666                 1.4169
 IR Inten    --     82.4755                37.4900                42.2306

                     46                     47                     48
                      A                      A                      A
 Frequencies --   1298.1966              1303.2470              1317.2237
 Red. masses --      1.2408                 1.1937                 1.1769
 Frc consts  --      1.2320                 1.1945                 1.2031
 IR Inten    --     38.2702                20.9334                10.5503

                     49                     50                     51
                      A                      A                      A
 Frequencies --   1329.3560              1343.2131              1356.4454
 Red. masses --      1.2951                 1.2654                 1.2148
 Frc consts  --      1.3484                 1.3451                 1.3170
 IR Inten    --      7.1276                 2.2896                 2.9532

                     52                     53                     54
                      A                      A                      A
 Frequencies --   1364.9219              1381.3188              1383.9624
 Red. masses --      1.3171                 1.4268                 1.4361
 Frc consts  --      1.4457                 1.6040                 1.6206
 IR Inten    --      4.2145                 4.5160                 7.6310

                     55                     56                     57
                      A                      A                      A
 Frequencies --   1390.0067              1392.3333              1402.7928
 Red. masses --      1.4412                 1.6068                 1.3342
 Frc consts  --      1.6406                 1.8353                 1.5469
 IR Inten    --     10.9625                11.6106                 4.7434

                     58                     59                     60
                      A                      A                      A
 Frequencies --   1411.6162              1420.1757              1430.4388
 Red. masses --      1.3806                 1.3383                 1.4176
 Frc consts  --      1.6208                 1.5903                 1.7090
 IR Inten    --     13.6107                11.5719                12.2676

                     61                     62                     63
                      A                      A                      A
 Frequencies --   1437.0272              1479.1768              1480.0098
 Red. masses --      1.3301                 1.0971                 1.0946
 Frc consts  --      1.6184                 1.4143                 1.4127
 IR Inten    --      6.4281                 6.2972                 6.7575

                     64                     65                     66
                      A                      A                      A
 Frequencies --   1486.5568              1496.5201              1501.2800
 Red. masses --      1.0848                 1.1050                 1.0880
 Frc consts  --      1.4124                 1.4580                 1.4447
 IR Inten    --     11.1728                16.9672                 2.5078

                     67                     68                     69
                      A                      A                      A
 Frequencies --   1503.7259              1514.5141              1515.6741
 Red. masses --      1.1017                 1.0972                 1.0989
 Frc consts  --      1.4677                 1.4828                 1.4874
 IR Inten    --     10.8415                10.2783                 5.5664

                     70                     71                     72
                      A                      A                      A
 Frequencies --   3020.9984              3022.9541              3041.0110
 Red. masses --      1.0698                 1.0689                 1.0695
 Frc consts  --      5.7525                 5.7552                 5.8271
 IR Inten    --     39.2402                97.0312                54.7375

                     73                     74                     75
                      A                      A                      A
 Frequencies --   3057.5992              3068.2779              3068.9063
 Red. masses --      1.0643                 1.0631                 1.0625
 Frc consts  --      5.8623                 5.8966                 5.8956
 IR Inten    --     26.4194                34.1155                35.7330

                     76                     77                     78
                      A                      A                      A
 Frequencies --   3076.5552              3079.2417              3100.4569
 Red. masses --      1.0666                 1.0626                 1.0859
 Frc consts  --      5.9480                 5.9361                 6.1503
 IR Inten    --     15.2448                15.9842                85.4025

                     79                     80                     81
                      A                      A                      A
 Frequencies --   3108.8737              3113.9039              3119.4642
 Red. masses --      1.0972                 1.0982                 1.1008
 Frc consts  --      6.2480                 6.2738                 6.3112
 IR Inten    --     19.3603                50.7743                58.1078

                     82                     83                     84
                      A                      A                      A
 Frequencies --   3121.3789              3125.3298              3128.8794
 Red. masses --      1.1022                 1.0954                 1.0982
 Frc consts  --      6.3270                 6.3042                 6.3346
 IR Inten    --     69.4665                 5.8625                74.0857

                     85                     86                     87
                      A                      A                      A
 Frequencies --   3134.8201              3136.3896              3143.3921
 Red. masses --      1.0947                 1.0960                 1.0877
 Frc consts  --      6.3382                 6.3519                 6.3324
 IR Inten    --     33.6558                42.0617                48.4943

 - Thermochemistry -
 -------------------
 Temperature   298.150 Kelvin.  Pressure   1.00000 Atm.
 Atom     1 has atomic number  6 and mass  12.00000

 Molecular mass:   186.12559 amu.
 Principal axes and moments of inertia in atomic units:
                           1         2         3
     Eigenvalues --  1124.442714016.462664129.25092
           X            0.99983  -0.01148   0.01460
           Y            0.01053   0.99791   0.06373
           Z           -0.01531  -0.06357   0.99786
 This molecule is an asymmetric top.
 Rotational symmetry number  1.
 Warning -- assumption of classical behavior for rotation
           may cause significant error
 Rotational temperatures (Kelvin)      0.07703     0.02156     0.02098
 Rotational constants (GHZ):           1.60501     0.44934     0.43706
    1 imaginary frequencies ignored.
 Zero-point vibrational energy     736911.7 (Joules/Mol)
                                  176.12613 (Kcal/Mol)
 Warning -- explicit consideration of  17 degrees of freedom as
           vibrations may cause significant error
 Vibrational temperatures:     60.78   127.51   215.17   284.62   333.14
          (Kelvin)            358.79   434.36   482.02   530.09   554.53
                              605.28   634.96   663.78   708.14   757.12
                              789.13   881.28  1051.88  1159.12  1194.29
                             1204.80  1260.63  1280.40  1293.80  1300.38
                             1339.01  1356.49  1389.64  1431.64  1463.26
                             1503.65  1518.49  1539.82  1542.23  1600.30
                             1650.14  1655.47  1674.71  1699.82  1722.43
                             1742.83  1754.09  1787.41  1796.65  1867.82
                             1875.08  1895.19  1912.65  1932.58  1951.62
                             1963.82  1987.41  1991.21  1999.91  2003.26
                             2018.31  2031.00  2043.32  2058.08  2067.56
                             2128.21  2129.40  2138.82  2153.16  2160.01
                             2163.53  2179.05  2180.72  4346.54  4349.36
                             4375.34  4399.20  4414.57  4415.47  4426.48
                             4430.34  4460.87  4472.98  4480.21  4488.21
                             4490.97  4496.65  4501.76  4510.31  4512.57
                             4522.64

 Zero-point correction=                           0.280675 (Hartree/Particle)
 Thermal correction to Energy=                    0.291596
 Thermal correction to Enthalpy=                  0.292541
 Thermal correction to Gibbs Free Energy=         0.243736
 Sum of electronic and zero-point Energies=           -617.212751
 Sum of electronic and thermal Energies=              -617.201829
 Sum of electronic and thermal Enthalpies=            -617.200885
 Sum of electronic and thermal Free Energies=         -617.249690

                     E (Thermal)             CV                S
                      KCal/Mol        Cal/Mol-Kelvin    Cal/Mol-Kelvin
 Total                  182.979             44.871            102.718
 Electronic               0.000              0.000              0.000
 Translational            0.889              2.981             41.570
 Rotational               0.889              2.981             31.301
 Vibrational            181.202             38.909             29.848
 Vibration     1          0.595              1.980              5.151
 Vibration     2          0.601              1.957              3.690
 Vibration     3          0.618              1.903              2.678
 Vibration     4          0.637              1.843              2.153
 Vibration     5          0.653              1.793              1.867
 Vibration     6          0.662              1.764              1.735
 Vibration     7          0.694              1.670              1.406
 Vibration     8          0.716              1.606              1.236
 Vibration     9          0.741              1.537              1.086
 Vibration    10          0.754              1.501              1.018
 Vibration    11          0.783              1.425              0.890
 Vibration    12          0.801              1.380              0.822
 Vibration    13          0.819              1.336              0.762
 Vibration    14          0.848              1.267              0.678
 Vibration    15          0.881              1.192              0.596
 Vibration    16          0.904              1.143              0.547
 Vibration    17          0.972              1.005              0.429

 Optimization completed.
    -- Stationary point found.
 Normal termination of Gaussian 16 at Sun Nov  4 23:15:42 2018.
