 Gaussian 16, Revision A.03,
 Gaussian 16:  ES64L-G16RevA.03 25-Dec-2016

 ----------------------------------------------------------------------
 #M062X/6-311++G(2d,2p) opt=ModRedundant freq=noraman SCRF=(Solvent=Wat
 er)
 ----------------------------------------------------------------------

 ---------------------------
 L_a1-e4_D_PHI.inp_extract_6
 ---------------------------
 Symbolic Z-matrix:
 Charge =  0 Multiplicity = 1

 SCF Done:  E(RM062X) =  -617.488415342     A.U. after   12 cycles
 SCF Done:  E(RM062X) =  -617.489242754     A.U. after   11 cycles
 SCF Done:  E(RM062X) =  -617.489851430     A.U. after   11 cycles
 SCF Done:  E(RM062X) =  -617.490437900     A.U. after   10 cycles
 SCF Done:  E(RM062X) =  -617.490583453     A.U. after   10 cycles
 SCF Done:  E(RM062X) =  -617.490632786     A.U. after    9 cycles
 SCF Done:  E(RM062X) =  -617.490654556     A.U. after    9 cycles
 SCF Done:  E(RM062X) =  -617.490665579     A.U. after    9 cycles
 SCF Done:  E(RM062X) =  -617.490670766     A.U. after    9 cycles
 SCF Done:  E(RM062X) =  -617.490671453     A.U. after    7 cycles
 Optimization completed.
    -- Stationary point found.
 Normal termination of Gaussian 16 at Sun Nov  4 22:14:44 2018.

 ----------------------------------------------------------------------
 #N Geom=AllCheck Guess=TCheck SCRF=Check GenChk RM062X/6-311++G(2d,2p)
  Freq
 ----------------------------------------------------------------------

 Structure from the checkpoint file:  "L_a1-e4_D_PHI.inp_extract_6.chk"
 ---------------------------
 L_a1-e4_D_PHI.inp_extract_6
 ---------------------------
 Charge =  0 Multiplicity = 1

                         Standard orientation:
 ---------------------------------------------------------------------
 Center     Atomic      Atomic             Coordinates (Angstroms)
 Number     Number       Type             X           Y           Z
 ---------------------------------------------------------------------
      1          6           0        1.810731   -1.482898    0.449463
      2          8           0        1.557046   -1.027069   -0.884980
      3          6           0        2.613909    0.800739    1.051616
      4          8           0       -2.492993   -1.367282    0.040749
      5          6           0        1.485177    0.346390   -1.152784
      6          6           0        2.551040    1.156944   -0.428536
      7          6           0       -3.003000    0.825809    0.939947
      8          8           0        0.204322    0.940285   -0.928859
      9          6           0       -1.827490    1.415999    0.163713
     10          6           0       -3.525792   -0.409454    0.225855
     11          6           0       -0.776594    0.345914   -0.096325
     12          6           0       -1.436356   -0.864373   -0.758149
     13          6           0        2.892385   -0.694537    1.165730
     14          1           0        0.884721   -1.463883    1.027761
     15          1           0        2.101153   -2.524974    0.333213
     16          1           0        1.667839    1.048919    1.540301
     17          1           0        3.392407    1.378189    1.548220
     18          1           0        1.632823    0.420011   -2.229573
     19          1           0        3.515203    0.937724   -0.893191
     20          1           0        2.335842    2.211773   -0.589643
     21          1           0       -3.803662    1.558706    1.040780
     22          1           0       -2.684244    0.544192    1.945797
     23          1           0       -2.172225    1.793257   -0.803198
     24          1           0       -1.374492    2.249083    0.701146
     25          1           0       -4.303576   -0.905247    0.802861
     26          1           0       -3.940246   -0.132461   -0.751359
     27          1           0       -0.351174    0.042995    0.862954
     28          1           0       -0.727876   -1.675903   -0.893047
     29          1           0       -1.814741   -0.556644   -1.741900
     30          1           0        2.928037   -1.022273    2.204658
     31          1           0        3.863154   -0.914145    0.715773
 ---------------------------------------------------------------------

 SCF Done:  E(RM062X) =  -617.490671453     A.U. after    1 cycles

 The electronic state is 1-A.
 Alpha  occ. eigenvalues --  -19.63714 -19.63016 -19.62658 -10.63928 -10.58820
 Alpha  occ. eigenvalues --  -10.58433 -10.57961 -10.57595 -10.53335 -10.53260
 Alpha  occ. eigenvalues --  -10.53201 -10.53140 -10.53043  -1.19534  -1.16465
 Alpha  occ. eigenvalues --   -1.13436  -0.91114  -0.90312  -0.87517  -0.84433
 Alpha  occ. eigenvalues --   -0.75115  -0.74148  -0.73586  -0.70493  -0.65731
 Alpha  occ. eigenvalues --   -0.64377  -0.59535  -0.58432  -0.57388  -0.55466
 Alpha  occ. eigenvalues --   -0.54917  -0.53142  -0.52477  -0.51086  -0.50407
 Alpha  occ. eigenvalues --   -0.47945  -0.47457  -0.45800  -0.45385  -0.44568
 Alpha  occ. eigenvalues --   -0.43771  -0.43436  -0.40519  -0.40278  -0.39681
 Alpha  occ. eigenvalues --   -0.39085  -0.37680  -0.36970  -0.34537  -0.33331
 Alpha  occ. eigenvalues --   -0.31260
 Alpha virt. eigenvalues --   -0.00186   0.00659   0.00859   0.01111   0.02240
 Alpha virt. eigenvalues --    0.02576   0.02660   0.03208   0.03544   0.04659
 Alpha virt. eigenvalues --    0.04804   0.05059   0.05542   0.05766   0.07187

 Mulliken charges:
               1
     1  C   -0.200047
     2  O   -0.283507
     3  C   -0.278969
     4  O   -0.301146
     5  C   -0.161558
     6  C   -0.259742
     7  C   -0.372813
     8  O   -0.242781
     9  C   -0.373792
    10  C   -0.146457
    11  C   -0.169745
    12  C   -0.337752
    13  C   -0.383798
    14  H    0.177527
    15  H    0.217066
    16  H    0.158753
    17  H    0.212524
    18  H    0.244001
    19  H    0.188932
    20  H    0.183900
    21  H    0.187413
    22  H    0.157538
    23  H    0.209682
    24  H    0.162588
    25  H    0.205792
    26  H    0.140769
    27  H    0.306127
    28  H    0.209665
    29  H    0.200115
    30  H    0.176643
    31  H    0.173073
 Sum of Mulliken charges =  -0.00000

 Dipole moment (field-independent basis, Debye):
    X=              1.0940    Y=              1.5314    Z=              2.0288  Tot=              2.7674
 Quadrupole moment (field-independent basis, Debye-Ang):
   XX=            -71.0564   YY=            -84.7715   ZZ=            -79.7975
   XY=             -4.5705   XZ=              1.7954   YZ=             -0.4835

  Exact polarizability: 172.307  -0.971 157.963  -2.539  -2.643 155.479
 Approx polarizability: 146.182  -1.853 143.042  -2.472  -3.049 143.936

 ******    1 imaginary frequencies (negative Signs) ******

                      1                      2                      3
                      A                      A                      A
 Frequencies --    -53.6851                51.9724                93.4557
 Red. masses --      4.3369                 3.4343                 3.5657
 Frc consts  --      0.0074                 0.0055                 0.0183
 IR Inten    --      1.8455                 2.8002                 2.6498

                      4                      5                      6
                      A                      A                      A
 Frequencies --    119.5612               191.9135               223.3429
 Red. masses --      3.1354                 3.1540                 2.8019
 Frc consts  --      0.0264                 0.0684                 0.0823
 IR Inten    --      0.5374                 6.3603                 4.2902

                      7                      8                      9
                      A                      A                      A
 Frequencies --    258.2604               284.8088               311.7580
 Red. masses --      2.2035                 3.9152                 2.5369
 Frc consts  --      0.0866                 0.1871                 0.1453
 IR Inten    --      3.4741                 8.8818                14.2005

                     10                     11                     12
                      A                      A                      A
 Frequencies --    359.1656               378.0462               433.2720
 Red. masses --      2.2404                 2.3405                 3.0646
 Frc consts  --      0.1703                 0.1971                 0.3390
 IR Inten    --     11.8067                11.2669                 2.3944

                     13                     14                     15
                      A                      A                      A
 Frequencies --    439.1503               456.2943               481.6857
 Red. masses --      3.2869                 3.4534                 2.1865
 Frc consts  --      0.3735                 0.4236                 0.2989
 IR Inten    --      3.3110                 0.7937                 1.4152

                     16                     17                     18
                      A                      A                      A
 Frequencies --    523.8413               570.0279               602.6370
 Red. masses --      2.8355                 2.1088                 2.6869
 Frc consts  --      0.4584                 0.4037                 0.5749
 IR Inten    --      1.4940                 9.6298                 0.0580

                     19                     20                     21
                      A                      A                      A
 Frequencies --    733.8105               807.9103               834.9444
 Red. masses --      3.2892                 2.3021                 1.9371
 Frc consts  --      1.0435                 0.8853                 0.7957
 IR Inten    --      6.5715                 3.5481                 1.7851

                     22                     23                     24
                      A                      A                      A
 Frequencies --    849.6819               879.0731               881.3470
 Red. masses --      2.1686                 1.7832                 1.8114
 Frc consts  --      0.9224                 0.8119                 0.8290
 IR Inten    --      2.2251                13.8124                10.0399

                     25                     26                     27
                      A                      A                      A
 Frequencies --    897.3626               902.8072               931.9205
 Red. masses --      2.5572                 2.2902                 1.9105
 Frc consts  --      1.2133                 1.0998                 0.9776
 IR Inten    --     33.4117                14.3340                15.6717

                     28                     29                     30
                      A                      A                      A
 Frequencies --    949.4687               965.1040               997.9109
 Red. masses --      1.8326                 2.2723                 1.6072
 Frc consts  --      0.9734                 1.2470                 0.9430
 IR Inten    --     10.4959                96.1679                11.2079

                     31                     32                     33
                      A                      A                      A
 Frequencies --   1014.5052              1045.0473              1056.6327
 Red. masses --      2.2063                 2.2988                 1.7393
 Frc consts  --      1.3379                 1.4792                 1.1441
 IR Inten    --     12.7960                25.6922                38.0649

                     34                     35                     36
                      A                      A                      A
 Frequencies --   1066.6908              1070.9744              1108.0227
 Red. masses --      1.5525                 2.0262                 2.8692
 Frc consts  --      1.0408                 1.3692                 2.0755
 IR Inten    --     84.9210                16.2617               172.6435

                     37                     38                     39
                      A                      A                      A
 Frequencies --   1143.7356              1150.9313              1154.7931
 Red. masses --      2.5313                 2.7082                 2.6478
 Frc consts  --      1.9509                 2.1136                 2.0804
 IR Inten    --    153.6100                34.1908                47.2955

                     40                     41                     42
                      A                      A                      A
 Frequencies --   1189.5490              1192.9739              1210.6382
 Red. masses --      2.4479                 2.5417                 1.4214
 Frc consts  --      2.0408                 2.1312                 1.2275
 IR Inten    --    138.2011               103.4736                25.5585

                     43                     44                     45
                      A                      A                      A
 Frequencies --   1214.7599              1243.1555              1254.8319
 Red. masses --      1.5816                 1.9586                 1.5789
 Frc consts  --      1.3751                 1.7834                 1.4648
 IR Inten    --     65.8595               126.6723                43.1512

                     46                     47                     48
                      A                      A                      A
 Frequencies --   1290.7584              1301.2042              1317.4274
 Red. masses --      1.2233                 1.1920                 1.1609
 Frc consts  --      1.2008                 1.1891                 1.1872
 IR Inten    --     19.2971                28.3498                 9.4720

                     49                     50                     51
                      A                      A                      A
 Frequencies --   1326.8213              1343.2333              1349.8567
 Red. masses --      1.2369                 1.2378                 1.2345
 Frc consts  --      1.2829                 1.3158                 1.3253
 IR Inten    --     10.4952                 2.3626                 6.4707

                     52                     53                     54
                      A                      A                      A
 Frequencies --   1358.2153              1385.0392              1387.3848
 Red. masses --      1.3596                 1.4665                 1.5046
 Frc consts  --      1.4777                 1.6575                 1.7064
 IR Inten    --      4.2450                 1.6189                 9.3804

                     55                     56                     57
                      A                      A                      A
 Frequencies --   1391.4787              1395.5420              1408.1538
 Red. masses --      1.7074                 1.4316                 1.3477
 Frc consts  --      1.9478                 1.6427                 1.5745
 IR Inten    --     17.6967                 2.0919                 1.7059

                     58                     59                     60
                      A                      A                      A
 Frequencies --   1409.0080              1416.9968              1428.3773
 Red. masses --      1.4146                 1.2782                 1.4146
 Frc consts  --      1.6547                 1.5121                 1.7005
 IR Inten    --     11.3525                 8.8550                 8.4108

                     61                     62                     63
                      A                      A                      A
 Frequencies --   1444.5963              1477.9478              1481.1709
 Red. masses --      1.3143                 1.1002                 1.0927
 Frc consts  --      1.6160                 1.4160                 1.4124
 IR Inten    --     13.6924                 4.5910                 7.8115

                     64                     65                     66
                      A                      A                      A
 Frequencies --   1489.5241              1495.2888              1502.9861
 Red. masses --      1.0875                 1.1099                 1.1054
 Frc consts  --      1.4216                 1.4621                 1.4712
 IR Inten    --      9.7207                10.3839                12.9248

                     67                     68                     69
                      A                      A                      A
 Frequencies --   1503.5654              1516.8085              1532.8230
 Red. masses --      1.0841                 1.0990                 1.0893
 Frc consts  --      1.4440                 1.4897                 1.5080
 IR Inten    --      2.8985                10.5939                 4.6478

                     70                     71                     72
                      A                      A                      A
 Frequencies --   3013.1628              3018.0470              3055.0549
 Red. masses --      1.0711                 1.0705                 1.0686
 Frc consts  --      5.7295                 5.7449                 5.8762
 IR Inten    --     44.5894                92.0176                20.6083

                     73                     74                     75
                      A                      A                      A
 Frequencies --   3059.0520              3064.2525              3067.9289
 Red. masses --      1.0698                 1.0694                 1.0638
 Frc consts  --      5.8982                 5.9159                 5.8993
 IR Inten    --     12.8392                22.2814                38.8684

                     76                     77                     78
                      A                      A                      A
 Frequencies --   3070.2296              3072.7747              3087.7706
 Red. masses --      1.0620                 1.0639                 1.0722
 Frc consts  --      5.8979                 5.9186                 6.0231
 IR Inten    --     34.1078                32.0685               107.0655

                     79                     80                     81
                      A                      A                      A
 Frequencies --   3100.9896              3114.9813              3117.9764
 Red. masses --      1.0871                 1.0981                 1.0959
 Frc consts  --      6.1590                 6.2777                 6.2774
 IR Inten    --     70.9362                33.3105                37.9945

                     82                     83                     84
                      A                      A                      A
 Frequencies --   3119.9836              3120.0251              3130.7875
 Red. masses --      1.1022                 1.1003                 1.1022
 Frc consts  --      6.3215                 6.3108                 6.3651
 IR Inten    --     64.6882                61.5704                50.9566

                     85                     86                     87
                      A                      A                      A
 Frequencies --   3131.4773              3133.7366              3167.0319
 Red. masses --      1.0947                 1.0993                 1.0926
 Frc consts  --      6.3249                 6.3607                 6.4566
 IR Inten    --     48.1667                35.4889                19.2035

 - Thermochemistry -
 -------------------
 Temperature   298.150 Kelvin.  Pressure   1.00000 Atm.
 Atom     1 has atomic number  6 and mass  12.00000

 Molecular mass:   186.12559 amu.
 Principal axes and moments of inertia in atomic units:
                           1         2         3
     Eigenvalues --  1149.084853748.770234009.78611
           X            0.99995  -0.00719   0.00634
           Y            0.00718   0.99997   0.00209
           Z           -0.00635  -0.00205   0.99998
 This molecule is an asymmetric top.
 Rotational symmetry number  1.
 Warning -- assumption of classical behavior for rotation
           may cause significant error
 Rotational temperatures (Kelvin)      0.07538     0.02310     0.02160
 Rotational constants (GHZ):           1.57059     0.48142     0.45008
    1 imaginary frequencies ignored.
 Zero-point vibrational energy     736464.5 (Joules/Mol)
                                  176.01924 (Kcal/Mol)
 Warning -- explicit consideration of  17 degrees of freedom as
           vibrations may cause significant error
 Vibrational temperatures:     74.78   134.46   172.02   276.12   321.34
          (Kelvin)            371.58   409.78   448.55   516.76   543.92
                              623.38   631.84   656.51   693.04   753.69
                              820.14   867.06  1055.79  1162.40  1201.30
                             1222.50  1264.79  1268.06  1291.10  1298.94
                             1340.83  1366.07  1388.57  1435.77  1459.65
                             1503.59  1520.26  1534.73  1540.89  1594.20
                             1645.58  1655.93  1661.49  1711.50  1716.42
                             1741.84  1747.77  1788.62  1805.42  1857.11
                             1872.14  1895.48  1909.00  1932.61  1942.14
                             1954.17  1992.76  1996.14  2002.03  2007.87
                             2026.02  2027.25  2038.74  2055.12  2078.45
                             2126.44  2131.07  2143.09  2151.39  2162.46
                             2163.30  2182.35  2205.39  4335.27  4342.30
                             4395.54  4401.29  4408.78  4414.07  4417.38
                             4421.04  4442.61  4461.63  4481.76  4486.07
                             4488.96  4489.02  4504.50  4505.50  4508.75
                             4556.65

 Zero-point correction=                           0.280505 (Hartree/Particle)
 Thermal correction to Energy=                    0.291518
 Thermal correction to Enthalpy=                  0.292462
 Thermal correction to Gibbs Free Energy=         0.243582
 Sum of electronic and zero-point Energies=           -617.210167
 Sum of electronic and thermal Energies=              -617.199154
 Sum of electronic and thermal Enthalpies=            -617.198210
 Sum of electronic and thermal Free Energies=         -617.247089

                     E (Thermal)             CV                S
                      KCal/Mol        Cal/Mol-Kelvin    Cal/Mol-Kelvin
 Total                  182.930             44.982            102.876
 Electronic               0.000              0.000              0.000
 Translational            0.889              2.981             41.570
 Rotational               0.889              2.981             31.224
 Vibrational            181.153             39.020             30.082
 Vibration     1          0.596              1.977              4.741
 Vibration     2          0.602              1.954              3.586
 Vibration     3          0.609              1.933              3.107
 Vibration     4          0.634              1.851              2.209
 Vibration     5          0.649              1.806              1.932
 Vibration     6          0.667              1.749              1.674
 Vibration     7          0.683              1.702              1.505
 Vibration     8          0.700              1.651              1.353
 Vibration     9          0.734              1.556              1.126
 Vibration    10          0.748              1.517              1.047
 Vibration    11          0.794              1.398              0.848
 Vibration    12          0.799              1.385              0.829
 Vibration    13          0.815              1.347              0.777
 Vibration    14          0.838              1.291              0.706
 Vibration    15          0.879              1.197              0.601
 Vibration    16          0.926              1.096              0.504
 Vibration    17          0.961              1.026              0.445

 Optimization completed.
    -- Stationary point found.
 Normal termination of Gaussian 16 at Sun Nov  4 23:06:58 2018.
