 Gaussian 16, Revision A.03,
 Gaussian 16:  ES64L-G16RevA.03 25-Dec-2016

 ----------------------------------------------------------------------
 #M062X/6-311++G(2d,2p) opt=ModRedundant freq=noraman SCRF=(Solvent=Wat
 er)
 ----------------------------------------------------------------------

 ----------------------------
 L_a1-e4_D_PHI.inp_extract_10
 ----------------------------
 Symbolic Z-matrix:
 Charge =  0 Multiplicity = 1

 SCF Done:  E(RM062X) =  -617.491117962     A.U. after   12 cycles
 SCF Done:  E(RM062X) =  -617.491180502     A.U. after   11 cycles
 SCF Done:  E(RM062X) =  -617.492594157     A.U. after   11 cycles
 SCF Done:  E(RM062X) =  -617.492989968     A.U. after   10 cycles
 SCF Done:  E(RM062X) =  -617.493090647     A.U. after   10 cycles
 SCF Done:  E(RM062X) =  -617.493097440     A.U. after    8 cycles
 SCF Done:  E(RM062X) =  -617.493099112     A.U. after    8 cycles
 SCF Done:  E(RM062X) =  -617.493100710     A.U. after    9 cycles
 SCF Done:  E(RM062X) =  -617.493101810     A.U. after    8 cycles
 SCF Done:  E(RM062X) =  -617.493102162     A.U. after    8 cycles
 Optimization completed.
    -- Stationary point found.
 Normal termination of Gaussian 16 at Sun Nov  4 22:14:18 2018.

 ----------------------------------------------------------------------
 #N Geom=AllCheck Guess=TCheck SCRF=Check GenChk RM062X/6-311++G(2d,2p)
  Freq
 ----------------------------------------------------------------------

 Structure from the checkpoint file:  "L_a1-e4_D_PHI.inp_extract_10.chk"
 ----------------------------
 L_a1-e4_D_PHI.inp_extract_10
 ----------------------------
 Charge =  0 Multiplicity = 1

                         Standard orientation:
 ---------------------------------------------------------------------
 Center     Atomic      Atomic             Coordinates (Angstroms)
 Number     Number       Type             X           Y           Z
 ---------------------------------------------------------------------
      1          6           0        2.144093   -1.407363    0.271992
      2          8           0        2.085698   -0.835813   -1.034758
      3          6           0        2.171188    0.827657    1.343671
      4          8           0       -2.442161   -1.388120    0.457610
      5          6           0        1.520797    0.449619   -1.157977
      6          6           0        1.962441    1.422706   -0.053024
      7          6           0       -2.882532    0.984355    0.743724
      8          8           0        0.132947    0.398786   -1.398979
      9          6           0       -1.793789    1.316645   -0.277243
     10          6           0       -3.459515   -0.393965    0.462925
     11          6           0       -0.770563    0.192385   -0.320783
     12          6           0       -1.477238   -1.139995   -0.546650
     13          6           0        2.894045   -0.510399    1.236882
     14          1           0        1.135957   -1.609592    0.646743
     15          1           0        2.646808   -2.363257    0.142694
     16          1           0        1.223474    0.684589    1.863915
     17          1           0        2.748017    1.531300    1.943202
     18          1           0        1.908057    0.815308   -2.106827
     19          1           0        2.920446    1.826517   -0.384939
     20          1           0        1.260184    2.255781   -0.032276
     21          1           0       -3.679779    1.727063    0.712855
     22          1           0       -2.462864    0.992586    1.752079
     23          1           0       -2.233229    1.411890   -1.274208
     24          1           0       -1.302927    2.261097   -0.041055
     25          1           0       -4.172104   -0.690798    1.229334
     26          1           0       -3.970315   -0.397780   -0.507743
     27          1           0       -0.243850    0.149175    0.631492
     28          1           0       -0.764153   -1.962757   -0.524327
     29          1           0       -1.952861   -1.120189   -1.535393
     30          1           0        2.963909   -0.997708    2.209280
     31          1           0        3.909796   -0.361928    0.863086
 ---------------------------------------------------------------------

 SCF Done:  E(RM062X) =  -617.493102162     A.U. after    1 cycles

 The electronic state is 1-A.
 Alpha  occ. eigenvalues --  -19.63214 -19.63198 -19.63173 -10.63997 -10.58837
 Alpha  occ. eigenvalues --  -10.58238 -10.58110 -10.58077 -10.53701 -10.53493
 Alpha  occ. eigenvalues --  -10.53337 -10.53259 -10.53137  -1.19686  -1.16703
 Alpha  occ. eigenvalues --   -1.13678  -0.90791  -0.90510  -0.87614  -0.84617
 Alpha  occ. eigenvalues --   -0.75175  -0.74338  -0.73877  -0.70470  -0.66076
 Alpha  occ. eigenvalues --   -0.64703  -0.59791  -0.58214  -0.57555  -0.55365
 Alpha  occ. eigenvalues --   -0.54998  -0.53717  -0.52141  -0.50943  -0.50475
 Alpha  occ. eigenvalues --   -0.49413  -0.47478  -0.46073  -0.45487  -0.44874
 Alpha  occ. eigenvalues --   -0.43811  -0.41830  -0.41399  -0.40669  -0.39486
 Alpha  occ. eigenvalues --   -0.38632  -0.37973  -0.37209  -0.34719  -0.33767
 Alpha  occ. eigenvalues --   -0.31789
 Alpha virt. eigenvalues --   -0.00195   0.00655   0.00903   0.01086   0.02289
 Alpha virt. eigenvalues --    0.02590   0.02662   0.03292   0.03643   0.04776
 Alpha virt. eigenvalues --    0.04899   0.05046   0.05468   0.05778   0.07387

 Mulliken charges:
               1
     1  C   -0.238409
     2  O   -0.305265
     3  C   -0.336904
     4  O   -0.282918
     5  C   -0.187780
     6  C   -0.252849
     7  C   -0.363277
     8  O   -0.246299
     9  C   -0.239869
    10  C   -0.181329
    11  C   -0.233642
    12  C   -0.317169
    13  C   -0.341150
    14  H    0.145356
    15  H    0.225866
    16  H    0.176036
    17  H    0.196510
    18  H    0.254634
    19  H    0.228050
    20  H    0.189963
    21  H    0.186549
    22  H    0.163272
    23  H    0.212157
    24  H    0.137434
    25  H    0.205228
    26  H    0.149143
    27  H    0.329445
    28  H    0.192093
    29  H    0.192874
    30  H    0.167480
    31  H    0.174772
 Sum of Mulliken charges =  -0.00000

 Dipole moment (field-independent basis, Debye):
    X=              0.1692    Y=              2.6580    Z=              2.6348  Tot=              3.7464
 Quadrupole moment (field-independent basis, Debye-Ang):
   XX=            -73.4549   YY=            -81.1851   ZZ=            -84.0179
   XY=             -2.7408   XZ=              4.8528   YZ=             -0.1551

  Exact polarizability: 171.751  -2.323 158.092  -1.058  -1.033 155.686
 Approx polarizability: 147.264  -1.862 141.589  -1.490  -2.119 144.304

 ******    1 imaginary frequencies (negative Signs) ******

                      1                      2                      3
                      A                      A                      A
 Frequencies --    -13.7587                39.6284                77.6295
 Red. masses --      4.9774                 3.3108                 3.8105
 Frc consts  --      0.0006                 0.0031                 0.0135
 IR Inten    --      1.3594                 0.9190                 1.8818

                      4                      5                      6
                      A                      A                      A
 Frequencies --    129.4237               196.4307               215.2992
 Red. masses --      3.0078                 3.0055                 2.1888
 Frc consts  --      0.0297                 0.0683                 0.0598
 IR Inten    --      2.2660                 2.1914                 0.9056

                      7                      8                      9
                      A                      A                      A
 Frequencies --    255.0550               293.7762               339.1455
 Red. masses --      1.9557                 3.6313                 2.0904
 Frc consts  --      0.0750                 0.1846                 0.1417
 IR Inten    --      6.3633                 8.8504                 3.6807

                     10                     11                     12
                      A                      A                      A
 Frequencies --    355.8819               408.4160               424.2012
 Red. masses --      2.3483                 3.7386                 2.4828
 Frc consts  --      0.1752                 0.3674                 0.2632
 IR Inten    --      7.7265                 6.6689                 9.4575

                     13                     14                     15
                      A                      A                      A
 Frequencies --    446.1441               459.5620               493.8706
 Red. masses --      3.7988                 3.4924                 2.7739
 Frc consts  --      0.4455                 0.4346                 0.3986
 IR Inten    --      8.5991                 1.2519                 0.9188

                     16                     17                     18
                      A                      A                      A
 Frequencies --    500.6601               568.4584               582.1233
 Red. masses --      3.3584                 2.3271                 1.9876
 Frc consts  --      0.4960                 0.4431                 0.3968
 IR Inten    --      2.6747                 7.5110                14.9553

                     19                     20                     21
                      A                      A                      A
 Frequencies --    742.3921               790.5533               828.6570
 Red. masses --      3.3860                 2.0603                 2.0453
 Frc consts  --      1.0995                 0.7587                 0.8275
 IR Inten    --     11.9980                 2.6064                 8.0673

                     22                     23                     24
                      A                      A                      A
 Frequencies --    844.9640               873.8921               891.2934
 Red. masses --      2.3044                 1.4068                 2.4044
 Frc consts  --      0.9694                 0.6330                 1.1254
 IR Inten    --      2.1565                10.1209                10.4335

                     25                     26                     27
                      A                      A                      A
 Frequencies --    898.3210               903.5619               934.1913
 Red. masses --      2.6155                 2.1166                 1.8223
 Frc consts  --      1.2436                 1.0182                 0.9370
 IR Inten    --     50.6032                 9.8809                18.5131

                     28                     29                     30
                      A                      A                      A
 Frequencies --    947.9555               967.9715               993.2860
 Red. masses --      1.9660                 2.4488                 1.4593
 Frc consts  --      1.0409                 1.3519                 0.8483
 IR Inten    --     31.8671                78.0377                11.0028

                     31                     32                     33
                      A                      A                      A
 Frequencies --   1014.7368              1052.6944              1060.6786
 Red. masses --      2.3393                 1.8314                 2.4944
 Frc consts  --      1.4192                 1.1958                 1.6534
 IR Inten    --      8.5175                 6.4035                46.0171

                     34                     35                     36
                      A                      A                      A
 Frequencies --   1064.9719              1077.5133              1105.2973
 Red. masses --      1.8251                 2.2237                 2.1187
 Frc consts  --      1.2196                 1.5211                 1.5251
 IR Inten    --    106.8082               152.3424                99.0807

                     37                     38                     39
                      A                      A                      A
 Frequencies --   1146.9512              1150.9134              1155.0161
 Red. masses --      2.5827                 2.7883                 2.6518
 Frc consts  --      2.0018                 2.1761                 2.0844
 IR Inten    --    144.4062                26.8908                69.9431

                     40                     41                     42
                      A                      A                      A
 Frequencies --   1183.3350              1196.1264              1211.9294
 Red. masses --      2.8389                 2.2425                 1.5415
 Frc consts  --      2.3421                 1.8903                 1.3340
 IR Inten    --     82.4140               104.7005                37.8387

                     43                     44                     45
                      A                      A                      A
 Frequencies --   1221.3117              1240.8695              1250.4106
 Red. masses --      1.6299                 1.7104                 1.5116
 Frc consts  --      1.4324                 1.5517                 1.3925
 IR Inten    --     60.8841                62.6677                44.4757

                     46                     47                     48
                      A                      A                      A
 Frequencies --   1301.1907              1304.5533              1320.7805
 Red. masses --      1.2268                 1.2252                 1.2080
 Frc consts  --      1.2238                 1.2285                 1.2416
 IR Inten    --     16.1541                50.7445                15.6693

                     49                     50                     51
                      A                      A                      A
 Frequencies --   1329.5080              1343.7405              1353.4925
 Red. masses --      1.3039                 1.2708                 1.2277
 Frc consts  --      1.3579                 1.3520                 1.3251
 IR Inten    --      8.9138                 2.7624                 5.1214

                     52                     53                     54
                      A                      A                      A
 Frequencies --   1364.3982              1383.9441              1384.5116
 Red. masses --      1.3220                 1.4405                 1.4409
 Frc consts  --      1.4500                 1.6256                 1.6273
 IR Inten    --      4.7156                 1.3078                12.3954

                     55                     56                     57
                      A                      A                      A
 Frequencies --   1392.4247              1393.2284              1404.8346
 Red. masses --      1.4090                 1.6066                 1.3428
 Frc consts  --      1.6095                 1.8374                 1.5614
 IR Inten    --      1.9804                11.1022                 1.1821

                     58                     59                     60
                      A                      A                      A
 Frequencies --   1414.2750              1427.2876              1430.5239
 Red. masses --      1.4217                 1.3653                 1.4360
 Frc consts  --      1.6754                 1.6387                 1.7313
 IR Inten    --     11.0256                22.2100                 5.1531

                     61                     62                     63
                      A                      A                      A
 Frequencies --   1451.7740              1475.6075              1481.2604
 Red. masses --      1.1735                 1.0948                 1.0909
 Frc consts  --      1.4573                 1.4045                 1.4103
 IR Inten    --      3.1799                 5.7143                 8.3797

                     64                     65                     66
                      A                      A                      A
 Frequencies --   1483.5311              1492.8311              1503.5731
 Red. masses --      1.0912                 1.1128                 1.0852
 Frc consts  --      1.4149                 1.4611                 1.4455
 IR Inten    --      9.2095                15.2027                 0.2767

                     67                     68                     69
                      A                      A                      A
 Frequencies --   1511.1946              1516.4209              1522.7381
 Red. masses --      1.0952                 1.1009                 1.0919
 Frc consts  --      1.4736                 1.4915                 1.4917
 IR Inten    --     10.7396                15.6187                 4.0939

                     70                     71                     72
                      A                      A                      A
 Frequencies --   3020.3033              3022.1372              3050.0420
 Red. masses --      1.0696                 1.0695                 1.0693
 Frc consts  --      5.7490                 5.7554                 5.8608
 IR Inten    --     32.8563               104.2091                54.2321

                     73                     74                     75
                      A                      A                      A
 Frequencies --   3057.8505              3067.5992              3068.7137
 Red. masses --      1.0644                 1.0637                 1.0625
 Frc consts  --      5.8639                 5.8977                 5.8951
 IR Inten    --     24.4399                36.9057                36.5861

                     76                     77                     78
                      A                      A                      A
 Frequencies --   3075.0528              3078.6209              3109.6409
 Red. masses --      1.0664                 1.0619                 1.0958
 Frc consts  --      5.9410                 5.9296                 6.2433
 IR Inten    --     14.2597                28.1894                 9.3853

                     79                     80                     81
                      A                      A                      A
 Frequencies --   3113.8628              3116.2296              3119.9029
 Red. masses --      1.0977                 1.0880                 1.1004
 Frc consts  --      6.2710                 6.2249                 6.3105
 IR Inten    --     67.7273                62.1001                51.7659

                     82                     83                     84
                      A                      A                      A
 Frequencies --   3122.0897              3125.2648              3128.2037
 Red. masses --      1.1010                 1.0954                 1.0987
 Frc consts  --      6.3232                 6.3038                 6.3343
 IR Inten    --     30.8329                13.2720                95.1784

                     85                     86                     87
                      A                      A                      A
 Frequencies --   3132.2920              3133.9062              3139.7937
 Red. masses --      1.0951                 1.0949                 1.0904
 Frc consts  --      6.3303                 6.3356                 6.3337
 IR Inten    --     42.0436                27.0258                52.7154

 - Thermochemistry -
 -------------------
 Temperature   298.150 Kelvin.  Pressure   1.00000 Atm.
 Atom     1 has atomic number  6 and mass  12.00000

 Molecular mass:   186.12559 amu.
 Principal axes and moments of inertia in atomic units:
                           1         2         3
     Eigenvalues --  1237.473283708.428823863.34359
           X            0.99990  -0.00676   0.01271
           Y            0.00641   0.99960   0.02749
           Z           -0.01289  -0.02741   0.99954
 This molecule is an asymmetric top.
 Rotational symmetry number  1.
 Warning -- assumption of classical behavior for rotation
           may cause significant error
 Rotational temperatures (Kelvin)      0.06999     0.02336     0.02242
 Rotational constants (GHZ):           1.45841     0.48666     0.46714
    1 imaginary frequencies ignored.
 Zero-point vibrational energy     736927.3 (Joules/Mol)
                                  176.12986 (Kcal/Mol)
 Warning -- explicit consideration of  17 degrees of freedom as
           vibrations may cause significant error
 Vibrational temperatures:     57.02   111.69   186.21   282.62   309.77
          (Kelvin)            366.97   422.68   487.95   512.03   587.62
                              610.33   641.90   661.21   710.57   720.34
                              817.88   837.55  1068.14  1137.43  1192.25
                             1215.71  1257.34  1282.37  1292.48  1300.02
                             1344.09  1363.90  1392.70  1429.12  1459.98
                             1514.59  1526.08  1532.26  1550.30  1590.28
                             1650.21  1655.91  1661.81  1702.56  1720.96
                             1743.70  1757.20  1785.33  1799.06  1872.12
                             1876.96  1900.31  1912.87  1933.34  1947.37
                             1963.06  1991.19  1992.00  2003.39  2004.54
                             2021.24  2034.83  2053.55  2058.20  2088.78
                             2123.07  2131.20  2134.47  2147.85  2163.31
                             2174.27  2181.79  2190.88  4345.54  4348.18
                             4388.33  4399.56  4413.59  4415.19  4424.32
                             4429.45  4474.08  4480.15  4483.56  4488.84
                             4491.99  4496.56  4500.79  4506.67  4508.99
                             4517.46

 Zero-point correction=                           0.280681 (Hartree/Particle)
 Thermal correction to Energy=                    0.291692
 Thermal correction to Enthalpy=                  0.292636
 Thermal correction to Gibbs Free Energy=         0.243475
 Sum of electronic and zero-point Energies=           -617.212421
 Sum of electronic and thermal Energies=              -617.201410
 Sum of electronic and thermal Enthalpies=            -617.200466
 Sum of electronic and thermal Free Energies=         -617.249627

                     E (Thermal)             CV                S
                      KCal/Mol        Cal/Mol-Kelvin    Cal/Mol-Kelvin
 Total                  183.039             44.930            103.467
 Electronic               0.000              0.000              0.000
 Translational            0.889              2.981             41.570
 Rotational               0.889              2.981             31.250
 Vibrational            181.262             38.968             30.647
 Vibration     1          0.594              1.981              5.278
 Vibration     2          0.599              1.964              3.950
 Vibration     3          0.612              1.924              2.955
 Vibration     4          0.636              1.845              2.166
 Vibration     5          0.645              1.818              1.998
 Vibration     6          0.665              1.754              1.695
 Vibration     7          0.689              1.685              1.452
 Vibration     8          0.719              1.597              1.216
 Vibration     9          0.731              1.563              1.140
 Vibration    10          0.773              1.452              0.932
 Vibration    11          0.786              1.418              0.878
 Vibration    12          0.805              1.369              0.808
 Vibration    13          0.817              1.340              0.767
 Vibration    14          0.850              1.264              0.674
 Vibration    15          0.856              1.249              0.656
 Vibration    16          0.924              1.099              0.507
 Vibration    17          0.939              1.070              0.481

 Optimization completed.
    -- Stationary point found.
 Normal termination of Gaussian 16 at Sun Nov  4 23:12:27 2018.
