 Gaussian 16, Revision A.03,
 Gaussian 16:  ES64L-G16RevA.03 25-Dec-2016

 ----------------------------------------------------------------------
 #M062X/6-311++G(2d,2p) opt=ModRedundant freq=noraman SCRF=(Solvent=Wat
 er)
 ----------------------------------------------------------------------

 ----------------------------
 L_a1-e4_D_PHI.inp_extract_24
 ----------------------------
 Symbolic Z-matrix:
 Charge =  0 Multiplicity = 1

 SCF Done:  E(RM062X) =  -617.502942996     A.U. after   12 cycles
 SCF Done:  E(RM062X) =  -617.504496732     A.U. after   10 cycles
 SCF Done:  E(RM062X) =  -617.504601052     A.U. after    9 cycles
 SCF Done:  E(RM062X) =  -617.504616700     A.U. after    8 cycles
 SCF Done:  E(RM062X) =  -617.504621399     A.U. after    8 cycles
 SCF Done:  E(RM062X) =  -617.504625005     A.U. after    9 cycles
 SCF Done:  E(RM062X) =  -617.504625741     A.U. after    8 cycles
 Optimization completed.
    -- Stationary point found.
 Normal termination of Gaussian 16 at Sun Nov  4 21:58:24 2018.

 ----------------------------------------------------------------------
 #N Geom=AllCheck Guess=TCheck SCRF=Check GenChk RM062X/6-311++G(2d,2p)
  Freq
 ----------------------------------------------------------------------

 Structure from the checkpoint file:  "L_a1-e4_D_PHI.inp_extract_24.chk"
 ----------------------------
 L_a1-e4_D_PHI.inp_extract_24
 ----------------------------
 Charge =  0 Multiplicity = 1

                         Standard orientation:
 ---------------------------------------------------------------------
 Center     Atomic      Atomic             Coordinates (Angstroms)
 Number     Number       Type             X           Y           Z
 ---------------------------------------------------------------------
      1          6           0       -2.315068    1.305793   -0.640383
      2          8           0       -1.647339    0.240441   -1.319431
      3          6           0       -3.147676   -0.301833    1.072638
      4          8           0        3.177652   -0.938208   -0.590593
      5          6           0       -1.227124   -0.799380   -0.463948
      6          6           0       -2.387830   -1.391591    0.317651
      7          6           0        3.042140    1.359590    0.191677
      8          8           0       -0.272991   -0.339670    0.462903
      9          6           0        1.618415    1.112108    0.691184
     10          6           0        3.829641    0.058731    0.186860
     11          6           0        0.987583   -0.013202   -0.108803
     12          6           0        1.893924   -1.240399   -0.076898
     13          6           0       -3.544604    0.807336    0.099804
     14          1           0       -1.620105    1.781640    0.056878
     15          1           0       -2.575497    2.025879   -1.412704
     16          1           0       -2.510795    0.112362    1.856622
     17          1           0       -4.026457   -0.725435    1.557517
     18          1           0       -0.779351   -1.539038   -1.131124
     19          1           0       -3.053269   -1.877072   -0.398372
     20          1           0       -2.004365   -2.156458    0.991673
     21          1           0        3.549868    2.090572    0.820958
     22          1           0        3.015562    1.760197   -0.823921
     23          1           0        1.639992    0.814033    1.743410
     24          1           0        1.007934    2.011764    0.613739
     25          1           0        4.815268    0.192441   -0.253497
     26          1           0        3.953531   -0.310042    1.212395
     27          1           0        0.851337    0.309427   -1.144937
     28          1           0        1.487887   -2.045921   -0.686722
     29          1           0        1.972276   -1.591691    0.959719
     30          1           0       -4.013600    1.641432    0.622544
     31          1           0       -4.265200    0.422498   -0.625914
 ---------------------------------------------------------------------

 SCF Done:  E(RM062X) =  -617.504625741     A.U. after    1 cycles

 The electronic state is 1-A.
 Alpha  occ. eigenvalues --  -19.63405 -19.63192 -19.62986 -10.63595 -10.58636
 Alpha  occ. eigenvalues --  -10.58090 -10.58044 -10.57753 -10.53326 -10.53270
 Alpha  occ. eigenvalues --  -10.53116 -10.53019 -10.52875  -1.20204  -1.16671
 Alpha  occ. eigenvalues --   -1.13487  -0.91142  -0.89806  -0.87148  -0.84564
 Alpha  occ. eigenvalues --   -0.74663  -0.74074  -0.72962  -0.70904  -0.65755
 Alpha  occ. eigenvalues --   -0.64199  -0.59945  -0.58641  -0.57463  -0.56270
 Alpha  occ. eigenvalues --   -0.53913  -0.53285  -0.52040  -0.51223  -0.49559
 Alpha  occ. eigenvalues --   -0.47967  -0.47001  -0.46083  -0.45531  -0.45304
 Alpha  occ. eigenvalues --   -0.44124  -0.42679  -0.40670  -0.40294  -0.39007
 Alpha  occ. eigenvalues --   -0.38491  -0.38281  -0.36334  -0.35875  -0.33401
 Alpha  occ. eigenvalues --   -0.31887
 Alpha virt. eigenvalues --   -0.00055   0.00761   0.00909   0.01009   0.02156
 Alpha virt. eigenvalues --    0.02469   0.02624   0.03365   0.03666   0.04359
 Alpha virt. eigenvalues --    0.04648   0.04761   0.05417   0.06051   0.06952

 Mulliken charges:
               1
     1  C   -0.132790
     2  O   -0.274639
     3  C   -0.318842
     4  O   -0.324225
     5  C   -0.081927
     6  C   -0.361523
     7  C   -0.360076
     8  O   -0.260362
     9  C   -0.186930
    10  C   -0.173655
    11  C   -0.275750
    12  C   -0.249604
    13  C   -0.353957
    14  H    0.121913
    15  H    0.203706
    16  H    0.180288
    17  H    0.182624
    18  H    0.253153
    19  H    0.187767
    20  H    0.177818
    21  H    0.186136
    22  H    0.162842
    23  H    0.207543
    24  H    0.138863
    25  H    0.207894
    26  H    0.138004
    27  H    0.289562
    28  H    0.189960
    29  H    0.192293
    30  H    0.168696
    31  H    0.165215
 Sum of Mulliken charges =  -0.00000

 Dipole moment (field-independent basis, Debye):
    X=             -0.8990    Y=              1.1886    Z=              1.8581  Tot=              2.3819
 Quadrupole moment (field-independent basis, Debye-Ang):
   XX=            -75.6221   YY=            -76.5356   ZZ=            -84.7576
   XY=              5.1000   XZ=              2.9509   YZ=             -0.2760

  Exact polarizability: 174.881   1.445 160.232  -0.292  -0.485 149.979
 Approx polarizability: 146.285   1.023 142.753   0.487   0.581 142.826

                      1                      2                      3
                      A                      A                      A
 Frequencies --     33.4808                51.6683                82.0900
 Red. masses --      3.6643                 3.8706                 3.4172
 Frc consts  --      0.0024                 0.0061                 0.0136
 IR Inten    --      0.2751                 1.0669                 0.5759

                      4                      5                      6
                      A                      A                      A
 Frequencies --    141.1802               179.1237               234.0719
 Red. masses --      3.7698                 2.8062                 2.7529
 Frc consts  --      0.0443                 0.0530                 0.0889
 IR Inten    --      4.7409                 0.1045                 8.5168

                      7                      8                      9
                      A                      A                      A
 Frequencies --    252.0661               287.3331               342.5370
 Red. masses --      2.1682                 2.2292                 2.6097
 Frc consts  --      0.0812                 0.1084                 0.1804
 IR Inten    --      2.3666                 3.1300                 8.7485

                     10                     11                     12
                      A                      A                      A
 Frequencies --    374.7034               390.5710               435.1252
 Red. masses --      2.4894                 2.7445                 3.2382
 Frc consts  --      0.2059                 0.2467                 0.3612
 IR Inten    --     28.0275                 5.1329                 9.0725

                     13                     14                     15
                      A                      A                      A
 Frequencies --    451.5937               469.7138               477.9272
 Red. masses --      3.6842                 3.5285                 2.2179
 Frc consts  --      0.4427                 0.4587                 0.2985
 IR Inten    --      2.4195                 0.4960                 0.5825

                     16                     17                     18
                      A                      A                      A
 Frequencies --    533.2076               580.6060               604.0865
 Red. masses --      2.2432                 2.6528                 2.4526
 Frc consts  --      0.3758                 0.5269                 0.5273
 IR Inten    --      2.5430                 9.6674                 7.8830

                     19                     20                     21
                      A                      A                      A
 Frequencies --    725.5721               833.3769               834.2813
 Red. masses --      3.0156                 2.2289                 1.5822
 Frc consts  --      0.9354                 0.9121                 0.6488
 IR Inten    --      2.3256                 0.3685                 4.0025

                     22                     23                     24
                      A                      A                      A
 Frequencies --    842.2130               878.9734               892.6245
 Red. masses --      3.0472                 1.4119                 2.2923
 Frc consts  --      1.2735                 0.6427                 1.0761
 IR Inten    --      9.8671                11.1314                13.8051

                     25                     26                     27
                      A                      A                      A
 Frequencies --    899.4365               906.8549               931.6409
 Red. masses --      2.3762                 2.4502                 1.6405
 Frc consts  --      1.1326                 1.1872                 0.8389
 IR Inten    --     22.7151                11.9816                23.8311

                     28                     29                     30
                      A                      A                      A
 Frequencies --    943.6058               987.4434               994.6853
 Red. masses --      2.2545                 2.3956                 1.3866
 Frc consts  --      1.1827                 1.3762                 0.8083
 IR Inten    --     44.2943                64.3614                 6.2382

                     31                     32                     33
                      A                      A                      A
 Frequencies --   1027.2523              1045.8581              1055.0750
 Red. masses --      2.2400                 2.3124                 1.7460
 Frc consts  --      1.3927                 1.4903                 1.1451
 IR Inten    --     40.1782                86.6470                51.8106

                     34                     35                     36
                      A                      A                      A
 Frequencies --   1064.1167              1071.9780              1114.6415
 Red. masses --      1.5008                 2.3095                 4.2734
 Frc consts  --      1.0013                 1.5637                 3.1282
 IR Inten    --     51.6700                20.2769               297.0627

                     37                     38                     39
                      A                      A                      A
 Frequencies --   1149.1942              1153.1849              1166.4139
 Red. masses --      3.0039                 2.6094                 2.4509
 Frc consts  --      2.3373                 2.0445                 1.9646
 IR Inten    --    122.2079                27.5360                26.2596

                     40                     41                     42
                      A                      A                      A
 Frequencies --   1167.4529              1193.3560              1209.5798
 Red. masses --      3.6636                 2.1372                 1.4268
 Frc consts  --      2.9419                 1.7932                 1.2299
 IR Inten    --    154.5235                40.4888                 8.6383

                     43                     44                     45
                      A                      A                      A
 Frequencies --   1221.3986              1234.0534              1252.5797
 Red. masses --      1.6530                 1.6232                 1.4711
 Frc consts  --      1.4529                 1.4565                 1.3599
 IR Inten    --     30.6096                63.5247                22.4245

                     46                     47                     48
                      A                      A                      A
 Frequencies --   1289.6340              1304.7230              1319.9125
 Red. masses --      1.2213                 1.1813                 1.1493
 Frc consts  --      1.1968                 1.1848                 1.1797
 IR Inten    --     16.9191                18.5269                 6.7493

                     49                     50                     51
                      A                      A                      A
 Frequencies --   1330.0753              1345.5896              1348.3814
 Red. masses --      1.2845                 1.2427                 1.2593
 Frc consts  --      1.3389                 1.3257                 1.3490
 IR Inten    --      7.3111                10.1024                13.1616

                     52                     53                     54
                      A                      A                      A
 Frequencies --   1360.5260              1383.2252              1386.1975
 Red. masses --      1.3329                 1.4491                 1.4626
 Frc consts  --      1.4536                 1.6335                 1.6558
 IR Inten    --      3.5609                 2.4333                 2.2135

                     55                     56                     57
                      A                      A                      A
 Frequencies --   1392.7052              1398.9599              1402.8307
 Red. masses --      1.7028                 1.4274                 1.2850
 Frc consts  --      1.9459                 1.6459                 1.4899
 IR Inten    --     16.0543                13.6132                 1.6987

                     58                     59                     60
                      A                      A                      A
 Frequencies --   1406.3317              1422.7939              1432.6166
 Red. masses --      1.3845                 1.4800                 1.4076
 Frc consts  --      1.6133                 1.7653                 1.7021
 IR Inten    --     29.7295                 8.2179                17.3571

                     61                     62                     63
                      A                      A                      A
 Frequencies --   1439.1285              1476.4255              1481.4150
 Red. masses --      1.3582                 1.1060                 1.0916
 Frc consts  --      1.6573                 1.4204                 1.4115
 IR Inten    --      1.7694                 5.2149                 7.6905

                     64                     65                     66
                      A                      A                      A
 Frequencies --   1482.4397              1495.0347              1495.7953
 Red. masses --      1.0856                 1.1106                 1.1088
 Frc consts  --      1.4056                 1.4625                 1.4617
 IR Inten    --      8.5770                10.4495                13.4523

                     67                     68                     69
                      A                      A                      A
 Frequencies --   1501.4115              1509.5820              1514.7514
 Red. masses --      1.0890                 1.0941                 1.1023
 Frc consts  --      1.4463                 1.4690                 1.4901
 IR Inten    --      0.4177                 4.2258                10.0156

                     70                     71                     72
                      A                      A                      A
 Frequencies --   3018.8641              3022.5807              3055.0546
 Red. masses --      1.0687                 1.0704                 1.0692
 Frc consts  --      5.7385                 5.7617                 5.8797
 IR Inten    --     39.1671                91.0849                15.4793

                     73                     74                     75
                      A                      A                      A
 Frequencies --   3056.6290              3063.9964              3066.9088
 Red. masses --      1.0688                 1.0626                 1.0780
 Frc consts  --      5.8835                 5.8777                 5.9743
 IR Inten    --     39.9334                47.9317                21.4305

                     76                     77                     78
                      A                      A                      A
 Frequencies --   3070.8758              3072.6015              3074.9088
 Red. masses --      1.0627                 1.0677                 1.0689
 Frc consts  --      5.9048                 5.9392                 5.9546
 IR Inten    --     38.7391                54.9021                 7.7954

                     79                     80                     81
                      A                      A                      A
 Frequencies --   3084.1708              3113.8290              3115.3943
 Red. masses --      1.0745                 1.0978                 1.0982
 Frc consts  --      6.0218                 6.2715                 6.2801
 IR Inten    --     77.7167                35.5640                45.1533

                     82                     83                     84
                      A                      A                      A
 Frequencies --   3119.5923              3121.5277              3125.7877
 Red. masses --      1.1026                 1.1027                 1.0955
 Frc consts  --      6.3219                 6.3303                 6.3065
 IR Inten    --     62.4993                54.3343                42.4290

                     85                     86                     87
                      A                      A                      A
 Frequencies --   3131.3303              3134.8546              3136.0507
 Red. masses --      1.1033                 1.0950                 1.0990
 Frc consts  --      6.3738                 6.3402                 6.3680
 IR Inten    --     41.3449                43.5060                45.0657

 - Thermochemistry -
 -------------------
 Temperature   298.150 Kelvin.  Pressure   1.00000 Atm.
 Atom     1 has atomic number  6 and mass  12.00000

 Molecular mass:   186.12559 amu.
 Principal axes and moments of inertia in atomic units:
                           1         2         3
     Eigenvalues --   927.377094422.845414732.78640
           X            0.99997   0.00731   0.00017
           Y           -0.00731   0.99996  -0.00563
           Z           -0.00021   0.00563   0.99998
 This molecule is an asymmetric top.
 Rotational symmetry number  1.
 Warning -- assumption of classical behavior for rotation
           may cause significant error
 Rotational temperatures (Kelvin)      0.09340     0.01958     0.01830
 Rotational constants (GHZ):           1.94607     0.40805     0.38133
 Zero-point vibrational energy     737039.4 (Joules/Mol)
                                  176.15665 (Kcal/Mol)
 Warning -- explicit consideration of  18 degrees of freedom as
           vibrations may cause significant error
 Vibrational temperatures:     48.17    74.34   118.11   203.13   257.72
          (Kelvin)            336.78   362.67   413.41   492.83   539.11
                              561.94   626.05   649.74   675.81   687.63
                              767.17   835.36   869.15  1043.94  1199.04
                             1200.34  1211.76  1264.65  1284.29  1294.09
                             1304.76  1340.42  1357.64  1420.71  1431.13
                             1477.99  1504.76  1518.02  1531.03  1542.34
                             1603.72  1653.43  1659.18  1678.21  1679.70
                             1716.97  1740.32  1757.32  1775.53  1802.18
                             1855.50  1877.21  1899.06  1913.68  1936.00
                             1940.02  1957.49  1990.15  1994.43  2003.79
                             2012.79  2018.36  2023.40  2047.08  2061.22
                             2070.58  2124.25  2131.43  2132.90  2151.02
                             2152.12  2160.20  2171.95  2179.39  4343.47
                             4348.82  4395.54  4397.81  4408.41  4412.60
                             4418.31  4420.79  4424.11  4437.43  4480.11
                             4482.36  4488.40  4491.18  4497.31  4505.29
                             4510.36  4512.08

 Zero-point correction=                           0.280723 (Hartree/Particle)
 Thermal correction to Energy=                    0.292493
 Thermal correction to Enthalpy=                  0.293437
 Thermal correction to Gibbs Free Energy=         0.242021
 Sum of electronic and zero-point Energies=           -617.223902
 Sum of electronic and thermal Energies=              -617.212133
 Sum of electronic and thermal Enthalpies=            -617.211189
 Sum of electronic and thermal Free Energies=         -617.262605

                     E (Thermal)             CV                S
                      KCal/Mol        Cal/Mol-Kelvin    Cal/Mol-Kelvin
 Total                  183.542             46.681            108.214
 Electronic               0.000              0.000              0.000
 Translational            0.889              2.981             41.570
 Rotational               0.889              2.981             31.341
 Vibrational            181.765             40.719             35.304
 Vibration     1          0.594              1.983              5.612
 Vibration     2          0.596              1.977              4.752
 Vibration     3          0.600              1.961              3.840
 Vibration     4          0.615              1.912              2.788
 Vibration     5          0.629              1.868              2.338
 Vibration     6          0.654              1.789              1.847
 Vibration     7          0.664              1.759              1.716
 Vibration     8          0.685              1.697              1.490
 Vibration     9          0.722              1.590              1.200
 Vibration    10          0.746              1.524              1.060
 Vibration    11          0.758              1.490              0.998
 Vibration    12          0.796              1.394              0.842
 Vibration    13          0.810              1.357              0.791
 Vibration    14          0.827              1.317              0.738
 Vibration    15          0.834              1.299              0.716
 Vibration    16          0.888              1.177              0.580
 Vibration    17          0.937              1.073              0.484
 Vibration    18          0.963              1.023              0.443

 Optimization completed.
    -- Stationary point found.
 Normal termination of Gaussian 16 at Sun Nov  4 22:50:48 2018.
