 Gaussian 16, Revision A.03,
 Gaussian 16:  ES64L-G16RevA.03 25-Dec-2016

 ----------------------------------------------------------------------
 #M062X/6-311++G(2d,2p) opt=ModRedundant freq=noraman SCRF=(Solvent=Wat
 er)
 ----------------------------------------------------------------------

 ----------------------------
 L_a1-e4_D_PHI.inp_extract_18
 ----------------------------
 Symbolic Z-matrix:
 Charge =  0 Multiplicity = 1

 SCF Done:  E(RM062X) =  -617.498505994     A.U. after   12 cycles
 SCF Done:  E(RM062X) =  -617.500120216     A.U. after   10 cycles
 SCF Done:  E(RM062X) =  -617.500227612     A.U. after    9 cycles
 SCF Done:  E(RM062X) =  -617.500253023     A.U. after    9 cycles
 SCF Done:  E(RM062X) =  -617.500267354     A.U. after    9 cycles
 SCF Done:  E(RM062X) =  -617.500283254     A.U. after   10 cycles
 SCF Done:  E(RM062X) =  -617.500288496     A.U. after    8 cycles
 SCF Done:  E(RM062X) =  -617.500289596     A.U. after    8 cycles
 Optimization completed.
    -- Stationary point found.
 Normal termination of Gaussian 16 at Sun Nov  4 22:03:18 2018.

 ----------------------------------------------------------------------
 #N Geom=AllCheck Guess=TCheck SCRF=Check GenChk RM062X/6-311++G(2d,2p)
  Freq
 ----------------------------------------------------------------------

 Structure from the checkpoint file:  "L_a1-e4_D_PHI.inp_extract_18.chk"
 ----------------------------
 L_a1-e4_D_PHI.inp_extract_18
 ----------------------------
 Charge =  0 Multiplicity = 1

                         Standard orientation:
 ---------------------------------------------------------------------
 Center     Atomic      Atomic             Coordinates (Angstroms)
 Number     Number       Type             X           Y           Z
 ---------------------------------------------------------------------
      1          6           0       -2.992550   -0.775577   -0.888328
      2          8           0       -2.322979   -1.395693    0.214537
      3          6           0       -2.430504    1.471807    0.027385
      4          8           0        2.783995    1.423871    0.019316
      5          6           0       -1.272457   -0.638635    0.738555
      6          6           0       -1.726589    0.749488    1.173335
      7          6           0        3.440109   -0.905616    0.239787
      8          8           0       -0.257747   -0.569008   -0.251331
      9          6           0        2.021172   -1.347069   -0.119667
     10          6           0        3.737763    0.448580   -0.384074
     11          6           0        1.035261   -0.246789    0.239419
     12          6           0        1.474216    1.073165   -0.384528
     13          6           0       -3.552035    0.584669   -0.509907
     14          1           0       -2.295042   -0.680529   -1.723984
     15          1           0       -3.780830   -1.468276   -1.173376
     16          1           0       -1.713698    1.675168   -0.771686
     17          1           0       -2.820124    2.430556    0.367163
     18          1           0       -0.897579   -1.210559    1.590952
     19          1           0       -2.411753    0.625445    2.014549
     20          1           0       -0.865772    1.312204    1.536949
     21          1           0        4.171014   -1.636099   -0.107155
     22          1           0        3.543131   -0.825229    1.324094
     23          1           0        1.948773   -1.527356   -1.195795
     24          1           0        1.748860   -2.271470    0.390181
     25          1           0        4.709247    0.825639   -0.072098
     26          1           0        3.729927    0.369013   -1.478026
     27          1           0        1.009966   -0.124348    1.327441
     28          1           0        0.813290    1.882418   -0.077225
     29          1           0        1.424847    0.978220   -1.476891
     30          1           0       -4.026661    1.032176   -1.383552
     31          1           0       -4.320061    0.455516    0.256416
 ---------------------------------------------------------------------

 SCF Done:  E(RM062X) =  -617.500289596     A.U. after    1 cycles

 The electronic state is 1-A.
 Alpha  occ. eigenvalues --  -19.63316 -19.63207 -19.63078 -10.63823 -10.58995
 Alpha  occ. eigenvalues --  -10.58128 -10.58111 -10.57894 -10.53324 -10.53236
 Alpha  occ. eigenvalues --  -10.53189 -10.53124 -10.52965  -1.20182  -1.16730
 Alpha  occ. eigenvalues --   -1.13699  -0.90693  -0.90078  -0.87204  -0.84872
 Alpha  occ. eigenvalues --   -0.74480  -0.73855  -0.73419  -0.71369  -0.65933
 Alpha  occ. eigenvalues --   -0.64230  -0.60108  -0.58109  -0.57745  -0.55596
 Alpha  occ. eigenvalues --   -0.55099  -0.53306  -0.52454  -0.50399  -0.50054
 Alpha  occ. eigenvalues --   -0.47870  -0.47658  -0.45963  -0.45831  -0.45044
 Alpha  occ. eigenvalues --   -0.44060  -0.42647  -0.40888  -0.40386  -0.39525
 Alpha  occ. eigenvalues --   -0.38445  -0.38251  -0.37405  -0.35191  -0.33257
 Alpha  occ. eigenvalues --   -0.31427
 Alpha virt. eigenvalues --   -0.00066   0.00745   0.00758   0.01188   0.02191
 Alpha virt. eigenvalues --    0.02434   0.02649   0.03471   0.03561   0.04410
 Alpha virt. eigenvalues --    0.04662   0.04740   0.05459   0.06066   0.07100

 Mulliken charges:
               1
     1  C   -0.228502
     2  O   -0.314601
     3  C   -0.252923
     4  O   -0.318966
     5  C   -0.135168
     6  C   -0.216237
     7  C   -0.371068
     8  O   -0.308304
     9  C   -0.255737
    10  C   -0.125322
    11  C   -0.131303
    12  C   -0.356699
    13  C   -0.392016
    14  H    0.171672
    15  H    0.213902
    16  H    0.155125
    17  H    0.184440
    18  H    0.271961
    19  H    0.207038
    20  H    0.173705
    21  H    0.184734
    22  H    0.162929
    23  H    0.204143
    24  H    0.153679
    25  H    0.210458
    26  H    0.133083
    27  H    0.242733
    28  H    0.195277
    29  H    0.204590
    30  H    0.170114
    31  H    0.167261
 Sum of Mulliken charges =  -0.00000

 Dipole moment (field-independent basis, Debye):
    X=              0.3237    Y=              0.4950    Z=              0.1212  Tot=              0.6037
 Quadrupole moment (field-independent basis, Debye-Ang):
   XX=            -73.8085   YY=            -86.6824   ZZ=            -77.5245
   XY=            -11.0919   XZ=              0.0069   YZ=             -0.6419

  Exact polarizability: 178.192  -1.557 154.867   2.855  -0.024 152.587
 Approx polarizability: 149.385   0.460 139.684   1.557   0.405 143.605

                      1                      2                      3
                      A                      A                      A
 Frequencies --     20.7721                48.3046                83.1979
 Red. masses --      4.1821                 3.6953                 3.1837
 Frc consts  --      0.0011                 0.0051                 0.0130
 IR Inten    --      2.2234                 2.0932                 0.1708

                      4                      5                      6
                      A                      A                      A
 Frequencies --    141.7083               187.3945               244.0004
 Red. masses --      3.5371                 2.6315                 2.6279
 Frc consts  --      0.0418                 0.0544                 0.0922
 IR Inten    --      3.3071                 2.9534                 0.0712

                      7                      8                      9
                      A                      A                      A
 Frequencies --    251.0741               291.2094               327.4831
 Red. masses --      2.1627                 2.3083                 4.1113
 Frc consts  --      0.0803                 0.1153                 0.2598
 IR Inten    --      5.4437                 1.1832                 7.9360

                     10                     11                     12
                      A                      A                      A
 Frequencies --    373.2067               399.5408               426.2973
 Red. masses --      2.2030                 3.5178                 2.0976
 Frc consts  --      0.1808                 0.3309                 0.2246
 IR Inten    --     10.9703                24.8264                 2.2247

                     13                     14                     15
                      A                      A                      A
 Frequencies --    446.0764               459.3509               498.6006
 Red. masses --      3.8061                 3.8852                 2.4074
 Frc consts  --      0.4462                 0.4830                 0.3526
 IR Inten    --      2.2942                 1.4824                 1.0660

                     16                     17                     18
                      A                      A                      A
 Frequencies --    526.2773               542.7359               615.6364
 Red. masses --      2.9964                 2.0789                 2.3148
 Frc consts  --      0.4890                 0.3608                 0.5169
 IR Inten    --      1.0367                 8.3357                 5.0302

                     19                     20                     21
                      A                      A                      A
 Frequencies --    721.4591               830.4179               834.9109
 Red. masses --      2.9005                 2.0488                 1.9111
 Frc consts  --      0.8895                 0.8324                 0.7849
 IR Inten    --      8.4553                 0.0493                 3.4884

                     22                     23                     24
                      A                      A                      A
 Frequencies --    846.5852               877.5049               890.2313
 Red. masses --      2.5879                 1.4003                 2.4297
 Frc consts  --      1.0928                 0.6353                 1.1345
 IR Inten    --      0.9766                10.3502                13.5195

                     25                     26                     27
                      A                      A                      A
 Frequencies --    900.7543               907.0017               935.7866
 Red. masses --      2.3182                 2.2405                 1.6846
 Frc consts  --      1.1082                 1.0859                 0.8692
 IR Inten    --      3.3635                41.7395                23.2347

                     28                     29                     30
                      A                      A                      A
 Frequencies --    942.9967               982.8353               995.3422
 Red. masses --      2.1828                 2.4870                 1.3958
 Frc consts  --      1.1436                 1.4154                 0.8147
 IR Inten    --     44.8102                46.2159                18.8441

                     31                     32                     33
                      A                      A                      A
 Frequencies --   1021.8929              1046.2912              1054.4687
 Red. masses --      2.1771                 2.2339                 1.7512
 Frc consts  --      1.3395                 1.4408                 1.1472
 IR Inten    --     34.1520                79.8177                42.4678

                     34                     35                     36
                      A                      A                      A
 Frequencies --   1068.5066              1078.0797              1131.1408
 Red. masses --      1.6138                 2.1921                 5.3469
 Frc consts  --      1.0856                 1.5011                 4.0308
 IR Inten    --    101.8664                18.1438               370.7487

                     37                     38                     39
                      A                      A                      A
 Frequencies --   1147.6354              1151.2058              1159.0490
 Red. masses --      2.4039                 2.9122                 2.4419
 Frc consts  --      1.8654                 2.2739                 1.9328
 IR Inten    --     72.7798                81.9632                22.3208

                     40                     41                     42
                      A                      A                      A
 Frequencies --   1169.7334              1196.3412              1211.3438
 Red. masses --      2.8497                 2.1536                 1.4611
 Frc consts  --      2.2974                 1.8160                 1.2631
 IR Inten    --     68.2753                68.6338                 5.8395

                     43                     44                     45
                      A                      A                      A
 Frequencies --   1217.5778              1246.9706              1249.4271
 Red. masses --      1.5798                 1.9633                 1.5066
 Frc consts  --      1.3799                 1.7987                 1.3857
 IR Inten    --     15.8247               115.4078                27.7498

                     46                     47                     48
                      A                      A                      A
 Frequencies --   1286.5973              1306.4005              1320.3167
 Red. masses --      1.2180                 1.2136                 1.1513
 Frc consts  --      1.1879                 1.2204                 1.1825
 IR Inten    --     16.7592                14.2199                 8.0653

                     49                     50                     51
                      A                      A                      A
 Frequencies --   1329.9265              1345.7577              1354.7725
 Red. masses --      1.2915                 1.2839                 1.2425
 Frc consts  --      1.3459                 1.3700                 1.3436
 IR Inten    --      9.8041                 2.9334                19.4070

                     52                     53                     54
                      A                      A                      A
 Frequencies --   1362.4989              1381.4861              1382.9189
 Red. masses --      1.2954                 1.4547                 1.5252
 Frc consts  --      1.4168                 1.6357                 1.7186
 IR Inten    --      5.7311                12.2158                 9.4965

                     55                     56                     57
                      A                      A                      A
 Frequencies --   1390.5916              1393.7776              1399.3934
 Red. masses --      1.5536                 1.4651                 1.2729
 Frc consts  --      1.7701                 1.6768                 1.4686
 IR Inten    --      2.5146                21.9989                21.3532

                     58                     59                     60
                      A                      A                      A
 Frequencies --   1406.4313              1418.2095              1432.7377
 Red. masses --      1.3818                 1.4003                 1.3802
 Frc consts  --      1.6104                 1.6595                 1.6692
 IR Inten    --      2.8844                13.0531                14.7043

                     61                     62                     63
                      A                      A                      A
 Frequencies --   1452.1231              1479.2205              1480.1308
 Red. masses --      1.3551                 1.1013                 1.0921
 Frc consts  --      1.6836                 1.4198                 1.4097
 IR Inten    --      6.9477                 4.0096                 7.9947

                     64                     65                     66
                      A                      A                      A
 Frequencies --   1485.1183              1493.7988              1496.6441
 Red. masses --      1.0846                 1.1082                 1.1114
 Frc consts  --      1.4094                 1.4570                 1.4668
 IR Inten    --     12.5117                 3.0826                26.6302

                     67                     68                     69
                      A                      A                      A
 Frequencies --   1502.2804              1512.1191              1514.1139
 Red. masses --      1.0910                 1.0941                 1.1024
 Frc consts  --      1.4507                 1.4740                 1.4890
 IR Inten    --      1.2541                 3.8966                 8.4619

                     70                     71                     72
                      A                      A                      A
 Frequencies --   3016.8492              3021.6244              3044.7478
 Red. masses --      1.0690                 1.0704                 1.0819
 Frc consts  --      5.7326                 5.7581                 5.9094
 IR Inten    --     41.0180                86.6304                16.7793

                     73                     74                     75
                      A                      A                      A
 Frequencies --   3059.9146              3060.4917              3064.8824
 Red. masses --      1.0677                 1.0658                 1.0756
 Frc consts  --      5.8900                 5.8815                 5.9530
 IR Inten    --     23.9061                52.6845                26.1751

                     76                     77                     78
                      A                      A                      A
 Frequencies --   3066.7424              3068.9911              3069.8401
 Red. masses --      1.0651                 1.0631                 1.0622
 Frc consts  --      5.9020                 5.8997                 5.8976
 IR Inten    --     40.0332                37.4685                38.5759

                     79                     80                     81
                      A                      A                      A
 Frequencies --   3077.3133              3112.3723              3113.6228
 Red. masses --      1.0697                 1.0998                 1.0971
 Frc consts  --      5.9683                 6.2769                 6.2666
 IR Inten    --     84.6159                46.8552                33.3927

                     82                     83                     84
                      A                      A                      A
 Frequencies --   3115.4826              3120.2469              3120.4661
 Red. masses --      1.1010                 1.1029                 1.1037
 Frc consts  --      6.2961                 6.3268                 6.3317
 IR Inten    --     42.1005               119.1027                21.2831

                     85                     86                     87
                      A                      A                      A
 Frequencies --   3125.2019              3133.9546              3139.3460
 Red. masses --      1.0958                 1.0950                 1.1001
 Frc consts  --      6.3058                 6.3364                 6.3880
 IR Inten    --     24.9187                44.6322                44.5684

 - Thermochemistry -
 -------------------
 Temperature   298.150 Kelvin.  Pressure   1.00000 Atm.
 Atom     1 has atomic number  6 and mass  12.00000

 Molecular mass:   186.12559 amu.
 Principal axes and moments of inertia in atomic units:
                           1         2         3
     Eigenvalues --   952.519094331.643304797.04476
           X            0.99980  -0.01981   0.00131
           Y            0.01981   0.99980   0.00126
           Z           -0.00133  -0.00124   1.00000
 This molecule is an asymmetric top.
 Rotational symmetry number  1.
 Warning -- assumption of classical behavior for rotation
           may cause significant error
 Rotational temperatures (Kelvin)      0.09093     0.02000     0.01806
 Rotational constants (GHZ):           1.89470     0.41664     0.37622
 Zero-point vibrational energy     736647.3 (Joules/Mol)
                                  176.06293 (Kcal/Mol)
 Warning -- explicit consideration of  18 degrees of freedom as
           vibrations may cause significant error
 Vibrational temperatures:     29.89    69.50   119.70   203.89   269.62
          (Kelvin)            351.06   361.24   418.99   471.18   536.96
                              574.85   613.35   641.80   660.90   717.38
                              757.20   780.88   885.76  1038.02  1194.79
                             1201.25  1218.05  1262.53  1280.84  1295.98
                             1304.97  1346.39  1356.76  1414.08  1432.08
                             1470.28  1505.38  1517.15  1537.34  1551.12
                             1627.46  1651.19  1656.33  1667.61  1682.99
                             1721.27  1742.85  1751.82  1794.11  1797.65
                             1851.13  1879.62  1899.64  1913.47  1936.25
                             1949.22  1960.33  1987.65  1989.71  2000.75
                             2005.34  2013.42  2023.54  2040.49  2061.39
                             2089.28  2128.27  2129.58  2136.75  2149.24
                             2153.34  2161.45  2175.60  2178.47  4340.57
                             4347.44  4380.71  4402.53  4403.36  4409.68
                             4412.36  4415.59  4416.82  4427.57  4478.01
                             4479.81  4482.48  4489.34  4489.65  4496.47
                             4509.06  4516.82

 Zero-point correction=                           0.280574 (Hartree/Particle)
 Thermal correction to Energy=                    0.292381
 Thermal correction to Enthalpy=                  0.293325
 Thermal correction to Gibbs Free Energy=         0.241420
 Sum of electronic and zero-point Energies=           -617.219715
 Sum of electronic and thermal Energies=              -617.207909
 Sum of electronic and thermal Enthalpies=            -617.206965
 Sum of electronic and thermal Free Energies=         -617.258870

                     E (Thermal)             CV                S
                      KCal/Mol        Cal/Mol-Kelvin    Cal/Mol-Kelvin
 Total                  183.472             46.736            109.244
 Electronic               0.000              0.000              0.000
 Translational            0.889              2.981             41.570
 Rotational               0.889              2.981             31.360
 Vibrational            181.694             40.774             36.314
 Vibration     1          0.593              1.986              6.559
 Vibration     2          0.595              1.978              4.886
 Vibration     3          0.600              1.961              3.814
 Vibration     4          0.615              1.912              2.781
 Vibration     5          0.632              1.857              2.253
 Vibration     6          0.659              1.773              1.774
 Vibration     7          0.663              1.761              1.723
 Vibration     8          0.687              1.690              1.467
 Vibration     9          0.711              1.621              1.272
 Vibration    10          0.745              1.527              1.067
 Vibration    11          0.766              1.471              0.964
 Vibration    12          0.788              1.413              0.871
 Vibration    13          0.805              1.370              0.808
 Vibration    14          0.817              1.340              0.768
 Vibration    15          0.854              1.253              0.662
 Vibration    16          0.881              1.192              0.596
 Vibration    17          0.898              1.156              0.559
 Vibration    18          0.975              0.999              0.424

 Optimization completed.
    -- Stationary point found.
 Normal termination of Gaussian 16 at Sun Nov  4 22:55:03 2018.
