 Gaussian 16, Revision A.03,
 Gaussian 16:  ES64L-G16RevA.03 25-Dec-2016

 ----------------------------------------------------------------------
 #M062X/6-311++G(2d,2p) opt=ModRedundant freq=noraman SCRF=(Solvent=Wat
 er)
 ----------------------------------------------------------------------

 ---------------------------
 L_a1-e4_D_PHI.inp_extract_9
 ---------------------------
 Symbolic Z-matrix:
 Charge =  0 Multiplicity = 1

 SCF Done:  E(RM062X) =  -617.491092906     A.U. after   12 cycles
 SCF Done:  E(RM062X) =  -617.490995762     A.U. after   11 cycles
 SCF Done:  E(RM062X) =  -617.492880697     A.U. after   10 cycles
 SCF Done:  E(RM062X) =  -617.493318362     A.U. after   10 cycles
 SCF Done:  E(RM062X) =  -617.493412676     A.U. after   10 cycles
 SCF Done:  E(RM062X) =  -617.493437691     A.U. after    9 cycles
 SCF Done:  E(RM062X) =  -617.493443974     A.U. after    8 cycles
 SCF Done:  E(RM062X) =  -617.493443600     A.U. after    7 cycles
 SCF Done:  E(RM062X) =  -617.493444122     A.U. after    7 cycles
 Optimization completed.
    -- Stationary point found.
 Normal termination of Gaussian 16 at Sun Nov  4 22:09:28 2018.

 ----------------------------------------------------------------------
 #N Geom=AllCheck Guess=TCheck SCRF=Check GenChk RM062X/6-311++G(2d,2p)
  Freq
 ----------------------------------------------------------------------

 Structure from the checkpoint file:  "L_a1-e4_D_PHI.inp_extract_9.chk"
 ---------------------------
 L_a1-e4_D_PHI.inp_extract_9
 ---------------------------
 Charge =  0 Multiplicity = 1

                         Standard orientation:
 ---------------------------------------------------------------------
 Center     Atomic      Atomic             Coordinates (Angstroms)
 Number     Number       Type             X           Y           Z
 ---------------------------------------------------------------------
      1          6           0        1.975317   -1.473945    0.174419
      2          8           0        1.859026   -0.812531   -1.087257
      3          6           0        2.289285    0.671999    1.370104
      4          8           0       -2.355172   -1.433689    0.252093
      5          6           0        1.510515    0.552806   -1.115893
      6          6           0        2.123873    1.381197    0.024303
      7          6           0       -2.899624    0.845839    0.897327
      8          8           0        0.125267    0.752291   -1.296845
      9          6           0       -1.835103    1.378119   -0.062418
     10          6           0       -3.416082   -0.500176    0.413670
     11          6           0       -0.763382    0.321452   -0.275807
     12          6           0       -1.413074   -0.990012   -0.706290
     13          6           0        2.866950   -0.718761    1.139216
     14          1           0        0.987803   -1.626581    0.619849
     15          1           0        2.385560   -2.453554   -0.061506
     16          1           0        1.338944    0.588641    1.899282
     17          1           0        2.947161    1.264949    2.004821
     18          1           0        1.919964    0.916059   -2.056529
     19          1           0        3.118904    1.671970   -0.317927
     20          1           0        1.541101    2.296769    0.120014
     21          1           0       -3.730223    1.546961    0.979489
     22          1           0       -2.472583    0.722300    1.894982
     23          1           0       -2.286266    1.605097   -1.032554
     24          1           0       -1.381668    2.295064    0.314777
     25          1           0       -4.105441   -0.941998    1.129889
     26          1           0       -3.937894   -0.380857   -0.543754
     27          1           0       -0.231996    0.162856    0.663078
     28          1           0       -0.667807   -1.774839   -0.820078
     29          1           0       -1.901639   -0.832173   -1.676264
     30          1           0        2.940198   -1.278115    2.071790
     31          1           0        3.870862   -0.642216    0.714937
 ---------------------------------------------------------------------

 SCF Done:  E(RM062X) =  -617.493444122     A.U. after    1 cycles

 The electronic state is 1-A.
 Alpha  occ. eigenvalues --  -19.63376 -19.63157 -19.63083 -10.63993 -10.58767
 Alpha  occ. eigenvalues --  -10.58322 -10.58084 -10.57923 -10.53550 -10.53448
 Alpha  occ. eigenvalues --  -10.53321 -10.53249 -10.53178  -1.19706  -1.16632
 Alpha  occ. eigenvalues --   -1.13640  -0.90828  -0.90563  -0.87557  -0.84514
 Alpha  occ. eigenvalues --   -0.75142  -0.74271  -0.73924  -0.70484  -0.66075
 Alpha  occ. eigenvalues --   -0.64569  -0.59758  -0.58078  -0.57498  -0.55416
 Alpha  occ. eigenvalues --   -0.55040  -0.53582  -0.52278  -0.50967  -0.50598
 Alpha  occ. eigenvalues --   -0.49218  -0.47289  -0.46022  -0.45486  -0.44673
 Alpha  occ. eigenvalues --   -0.43781  -0.42189  -0.41248  -0.40574  -0.39546
 Alpha  occ. eigenvalues --   -0.38791  -0.37813  -0.37268  -0.34448  -0.33954
 Alpha  occ. eigenvalues --   -0.31648
 Alpha virt. eigenvalues --   -0.00205   0.00627   0.00900   0.01097   0.02285
 Alpha virt. eigenvalues --    0.02568   0.02670   0.03290   0.03620   0.04764
 Alpha virt. eigenvalues --    0.04863   0.05080   0.05444   0.05767   0.07505

 Mulliken charges:
               1
     1  C   -0.237718
     2  O   -0.300689
     3  C   -0.314631
     4  O   -0.285664
     5  C   -0.188884
     6  C   -0.242277
     7  C   -0.353044
     8  O   -0.253631
     9  C   -0.302766
    10  C   -0.167902
    11  C   -0.148053
    12  C   -0.362649
    13  C   -0.374187
    14  H    0.174888
    15  H    0.225871
    16  H    0.175383
    17  H    0.200757
    18  H    0.255998
    19  H    0.218128
    20  H    0.191339
    21  H    0.189669
    22  H    0.162632
    23  H    0.209855
    24  H    0.144354
    25  H    0.204437
    26  H    0.148563
    27  H    0.286736
    28  H    0.202572
    29  H    0.195930
    30  H    0.169942
    31  H    0.175043
 Sum of Mulliken charges =  -0.00000

 Dipole moment (field-independent basis, Debye):
    X=              0.5153    Y=              2.0782    Z=              2.8120  Tot=              3.5344
 Quadrupole moment (field-independent basis, Debye-Ang):
   XX=            -71.6309   YY=            -82.3910   ZZ=            -83.2656
   XY=             -3.1282   XZ=              3.3273   YZ=              0.3279

  Exact polarizability: 171.298  -1.393 158.670  -1.429  -1.632 155.433
 Approx polarizability: 146.788  -1.587 142.430  -1.760  -2.763 144.024

                      1                      2                      3
                      A                      A                      A
 Frequencies --     52.9894                58.6124                76.9499
 Red. masses --      4.0517                 3.2567                 4.0303
 Frc consts  --      0.0067                 0.0066                 0.0141
 IR Inten    --      2.0679                 0.9718                 1.3745

                      4                      5                      6
                      A                      A                      A
 Frequencies --    137.2225               196.2284               220.2528
 Red. masses --      3.1956                 3.1004                 2.2961
 Frc consts  --      0.0355                 0.0703                 0.0656
 IR Inten    --      2.8494                 2.3205                 2.5975

                      7                      8                      9
                      A                      A                      A
 Frequencies --    260.8163               290.5813               344.9851
 Red. masses --      1.9615                 3.8543                 2.3669
 Frc consts  --      0.0786                 0.1917                 0.1660
 IR Inten    --      5.7890                 9.5121                 3.9418

                     10                     11                     12
                      A                      A                      A
 Frequencies --    357.8766               416.8851               425.0867
 Red. masses --      2.0850                 2.9033                 3.4535
 Frc consts  --      0.1573                 0.2973                 0.3677
 IR Inten    --      6.6968                13.5320                 9.6188

                     13                     14                     15
                      A                      A                      A
 Frequencies --    442.3156               457.0361               494.1497
 Red. masses --      3.4401                 3.4848                 2.6308
 Frc consts  --      0.3965                 0.4289                 0.3785
 IR Inten    --      5.0118                 1.1558                 1.2629

                     16                     17                     18
                      A                      A                      A
 Frequencies --    502.1388               572.8766               584.8127
 Red. masses --      3.1457                 2.3180                 2.0817
 Frc consts  --      0.4673                 0.4482                 0.4195
 IR Inten    --      2.8391                15.8131                 0.7439

                     19                     20                     21
                      A                      A                      A
 Frequencies --    740.0932               789.2385               830.2173
 Red. masses --      3.4712                 2.0674                 2.0355
 Frc consts  --      1.1202                 0.7587                 0.8266
 IR Inten    --     12.1314                 3.2927                 7.2160

                     22                     23                     24
                      A                      A                      A
 Frequencies --    849.4127               878.4486               890.2693
 Red. masses --      2.3191                 1.4026                 2.3904
 Frc consts  --      0.9859                 0.6377                 1.1163
 IR Inten    --      1.8731                 8.8601                13.2893

                     25                     26                     27
                      A                      A                      A
 Frequencies --    898.4515               904.2372               934.6969
 Red. masses --      2.6063                 2.1042                 1.8093
 Frc consts  --      1.2395                 1.0137                 0.9313
 IR Inten    --     36.3631                14.9541                15.4938

                     28                     29                     30
                      A                      A                      A
 Frequencies --    950.5186               969.7762               995.4657
 Red. masses --      1.9134                 2.4839                 1.4727
 Frc consts  --      1.0185                 1.3763                 0.8598
 IR Inten    --     26.3122                87.7218                 9.8320

                     31                     32                     33
                      A                      A                      A
 Frequencies --   1014.9718              1052.0011              1061.8521
 Red. masses --      2.3496                 1.7986                 2.2393
 Frc consts  --      1.4261                 1.1728                 1.4876
 IR Inten    --      7.8731                 6.8315                15.8556

                     34                     35                     36
                      A                      A                      A
 Frequencies --   1064.9710              1082.9651              1105.1841
 Red. masses --      2.0403                 2.1446                 2.1823
 Frc consts  --      1.3634                 1.4819                 1.5705
 IR Inten    --    115.5383               160.2983                90.9311

                     37                     38                     39
                      A                      A                      A
 Frequencies --   1146.0405              1150.7330              1155.6005
 Red. masses --      2.5082                 2.9584                 2.5885
 Frc consts  --      1.9409                 2.3081                 2.0367
 IR Inten    --    125.3333                52.2340                56.8296

                     40                     41                     42
                      A                      A                      A
 Frequencies --   1183.7543              1196.7508              1213.5157
 Red. masses --      2.7225                 2.1762                 1.5873
 Frc consts  --      2.2477                 1.8363                 1.3772
 IR Inten    --     92.7562                94.9430                39.8288

                     43                     44                     45
                      A                      A                      A
 Frequencies --   1219.1261              1242.3718              1251.2074
 Red. masses --      1.5992                 1.7196                 1.5147
 Frc consts  --      1.4004                 1.5638                 1.3971
 IR Inten    --     61.0365                77.8932                41.2124

                     46                     47                     48
                      A                      A                      A
 Frequencies --   1302.2669              1304.4601              1324.0595
 Red. masses --      1.2276                 1.2309                 1.1871
 Frc consts  --      1.2266                 1.2341                 1.2262
 IR Inten    --      9.8301                55.9410                14.6518

                     49                     50                     51
                      A                      A                      A
 Frequencies --   1329.6218              1345.4173              1350.1361
 Red. masses --      1.2930                 1.2788                 1.2309
 Frc consts  --      1.3468                 1.3638                 1.3220
 IR Inten    --      9.9256                 3.8506                 5.6470

                     52                     53                     54
                      A                      A                      A
 Frequencies --   1364.6755              1382.5321              1385.5870
 Red. masses --      1.3312                 1.4450                 1.4164
 Frc consts  --      1.4607                 1.6273                 1.6022
 IR Inten    --      5.4306                 1.1634                 6.6206

                     55                     56                     57
                      A                      A                      A
 Frequencies --   1392.6925              1394.0802              1404.5791
 Red. masses --      1.6177                 1.4311                 1.3333
 Frc consts  --      1.8487                 1.6387                 1.5498
 IR Inten    --     11.6847                 3.1695                 1.0220

                     58                     59                     60
                      A                      A                      A
 Frequencies --   1414.5482              1428.5776              1430.5609
 Red. masses --      1.4457                 1.4001                 1.3827
 Frc consts  --      1.7044                 1.6835                 1.6673
 IR Inten    --     10.7610                 8.4954                17.1396

                     61                     62                     63
                      A                      A                      A
 Frequencies --   1449.7137              1475.0547              1481.0043
 Red. masses --      1.1806                 1.0948                 1.0916
 Frc consts  --      1.4619                 1.4034                 1.4106
 IR Inten    --      5.2580                 5.3926                 7.7858

                     64                     65                     66
                      A                      A                      A
 Frequencies --   1484.5461              1494.6977              1504.6597
 Red. masses --      1.0921                 1.1119                 1.0847
 Frc consts  --      1.4181                 1.4636                 1.4468
 IR Inten    --      9.9417                12.0331                 0.3077

                     67                     68                     69
                      A                      A                      A
 Frequencies --   1511.9078              1518.3423              1527.4778
 Red. masses --      1.0968                 1.0998                 1.0897
 Frc consts  --      1.4772                 1.4938                 1.4980
 IR Inten    --     10.3785                17.2882                 3.4338

                     70                     71                     72
                      A                      A                      A
 Frequencies --   3019.0312              3021.8044              3054.8655
 Red. masses --      1.0699                 1.0704                 1.0689
 Frc consts  --      5.7454                 5.7585                 5.8773
 IR Inten    --     37.5224                98.5846                54.0763

                     73                     74                     75
                      A                      A                      A
 Frequencies --   3057.5733              3066.6386              3069.2375
 Red. masses --      1.0645                 1.0633                 1.0625
 Frc consts  --      5.8634                 5.8916                 5.8973
 IR Inten    --     19.1200                40.0038                35.8336

                     76                     77                     78
                      A                      A                      A
 Frequencies --   3072.9054              3076.1967              3105.9100
 Red. masses --      1.0672                 1.0617                 1.0882
 Frc consts  --      5.9372                 5.9197                 6.1852
 IR Inten    --     15.5942                25.2409                22.8012

                     79                     80                     81
                      A                      A                      A
 Frequencies --   3113.2716              3115.1595              3118.1308
 Red. masses --      1.0955                 1.0899                 1.0964
 Frc consts  --      6.2560                 6.2313                 6.2807
 IR Inten    --     66.4288                65.9556                17.3176

                     82                     83                     84
                      A                      A                      A
 Frequencies --   3120.7976              3123.1189              3128.9306
 Red. masses --      1.1019                 1.0960                 1.0987
 Frc consts  --      6.3230                 6.2985                 6.3377
 IR Inten    --     47.5764                52.9408                17.0725

                     85                     86                     87
                      A                      A                      A
 Frequencies --   3131.0198              3132.8571              3139.8636
 Red. masses --      1.0993                 1.0949                 1.0949
 Frc consts  --      6.3498                 6.3314                 6.3596
 IR Inten    --    110.9279                33.9172                22.7945

 - Thermochemistry -
 -------------------
 Temperature   298.150 Kelvin.  Pressure   1.00000 Atm.
 Atom     1 has atomic number  6 and mass  12.00000

 Molecular mass:   186.12559 amu.
 Principal axes and moments of inertia in atomic units:
                           1         2         3
     Eigenvalues --  1245.512603624.075513818.39076
           X            0.99992  -0.00773   0.01038
           Y            0.00741   0.99952   0.02998
           Z           -0.01061  -0.02990   0.99950
 This molecule is an asymmetric top.
 Rotational symmetry number  1.
 Warning -- assumption of classical behavior for rotation
           may cause significant error
 Rotational temperatures (Kelvin)      0.06954     0.02390     0.02268
 Rotational constants (GHZ):           1.44899     0.49799     0.47264
 Zero-point vibrational energy     737690.4 (Joules/Mol)
                                  176.31223 (Kcal/Mol)
 Warning -- explicit consideration of  18 degrees of freedom as
           vibrations may cause significant error
 Vibrational temperatures:     76.24    84.33   110.71   197.43   282.33
          (Kelvin)            316.89   375.26   418.08   496.36   514.90
                              599.80   611.60   636.39   657.57   710.97
                              722.47   824.24   841.41  1064.83  1135.54
                             1194.50  1222.12  1263.89  1280.90  1292.67
                             1301.00  1344.82  1367.58  1395.29  1432.25
                             1460.32  1513.59  1527.77  1532.26  1558.15
                             1590.11  1648.90  1655.65  1662.65  1703.16
                             1721.86  1745.98  1754.05  1787.50  1800.21
                             1873.67  1876.83  1905.03  1913.03  1935.76
                             1942.54  1963.46  1989.16  1993.55  2003.77
                             2005.77  2020.88  2035.22  2055.40  2058.26
                             2085.81  2122.27  2130.83  2135.93  2150.54
                             2164.87  2175.30  2184.56  2197.70  4343.71
                             4347.70  4395.27  4399.17  4412.21  4415.95
                             4421.23  4425.96  4468.71  4479.30  4482.02
                             4486.29  4490.13  4493.47  4501.83  4504.84
                             4507.48  4517.56

 Zero-point correction=                           0.280971 (Hartree/Particle)
 Thermal correction to Energy=                    0.292726
 Thermal correction to Enthalpy=                  0.293670
 Thermal correction to Gibbs Free Energy=         0.242767
 Sum of electronic and zero-point Energies=           -617.212473
 Sum of electronic and thermal Energies=              -617.200718
 Sum of electronic and thermal Enthalpies=            -617.199774
 Sum of electronic and thermal Free Energies=         -617.250678

                     E (Thermal)             CV                S
                      KCal/Mol        Cal/Mol-Kelvin    Cal/Mol-Kelvin
 Total                  183.688             46.811            107.136
 Electronic               0.000              0.000              0.000
 Translational            0.889              2.981             41.570
 Rotational               0.889              2.981             31.222
 Vibrational            181.911             40.849             34.344
 Vibration     1          0.596              1.976              4.703
 Vibration     2          0.596              1.974              4.503
 Vibration     3          0.599              1.965              3.967
 Vibration     4          0.614              1.916              2.842
 Vibration     5          0.636              1.845              2.168
 Vibration     6          0.647              1.810              1.957
 Vibration     7          0.669              1.744              1.656
 Vibration     8          0.687              1.691              1.471
 Vibration     9          0.723              1.585              1.189
 Vibration    10          0.733              1.559              1.131
 Vibration    11          0.780              1.434              0.903
 Vibration    12          0.787              1.416              0.875
 Vibration    13          0.802              1.378              0.819
 Vibration    14          0.815              1.345              0.775
 Vibration    15          0.850              1.263              0.673
 Vibration    16          0.857              1.245              0.653
 Vibration    17          0.929              1.090              0.499
 Vibration    18          0.942              1.064              0.477

 Optimization completed.
    -- Stationary point found.
 Normal termination of Gaussian 16 at Sun Nov  4 23:10:43 2018.
