 Gaussian 16, Revision A.03,
 Gaussian 16:  ES64L-G16RevA.03 25-Dec-2016

 ----------------------------------------------------------------------
 #M062X/6-311++G(2d,2p) opt=ModRedundant freq=noraman SCRF=(Solvent=Wat
 er)
 ----------------------------------------------------------------------

 ---------------------------
 L_a1-e4_D_PHI.inp_extract_8
 ---------------------------
 Symbolic Z-matrix:
 Charge =  0 Multiplicity = 1

 SCF Done:  E(RM062X) =  -617.490424809     A.U. after   12 cycles
 SCF Done:  E(RM062X) =  -617.490471053     A.U. after   11 cycles
 SCF Done:  E(RM062X) =  -617.492444586     A.U. after   11 cycles
 SCF Done:  E(RM062X) =  -617.492753863     A.U. after   10 cycles
 SCF Done:  E(RM062X) =  -617.492856042     A.U. after   10 cycles
 SCF Done:  E(RM062X) =  -617.492873676     A.U. after    9 cycles
 SCF Done:  E(RM062X) =  -617.492874888     A.U. after    8 cycles
 SCF Done:  E(RM062X) =  -617.492875199     A.U. after    7 cycles
 SCF Done:  E(RM062X) =  -617.492875246     A.U. after    6 cycles
 Optimization completed.
    -- Stationary point found.
 Normal termination of Gaussian 16 at Sun Nov  4 22:09:23 2018.

 ----------------------------------------------------------------------
 #N Geom=AllCheck Guess=TCheck SCRF=Check GenChk RM062X/6-311++G(2d,2p)
  Freq
 ----------------------------------------------------------------------

 Structure from the checkpoint file:  "L_a1-e4_D_PHI.inp_extract_8.chk"
 ---------------------------
 L_a1-e4_D_PHI.inp_extract_8
 ---------------------------
 Charge =  0 Multiplicity = 1

                         Standard orientation:
 ---------------------------------------------------------------------
 Center     Atomic      Atomic             Coordinates (Angstroms)
 Number     Number       Type             X           Y           Z
 ---------------------------------------------------------------------
      1          6           0       -1.855477    1.504999    0.217341
      2          8           0       -1.711928    0.866746   -1.055211
      3          6           0       -2.395031   -0.665145    1.301684
      4          8           0        2.369995    1.415831    0.140356
      5          6           0       -1.514440   -0.524694   -1.122720
      6          6           0       -2.312632   -1.312787   -0.079043
      7          6           0        2.918420   -0.807141    0.949622
      8          8           0       -0.147778   -0.894991   -1.172282
      9          6           0        1.828801   -1.403942    0.059232
     10          6           0        3.430422    0.492160    0.349041
     11          6           0        0.755712   -0.362068   -0.215725
     12          6           0        1.403354    0.908569   -0.761460
     13          6           0       -2.826823    0.786798    1.133401
     14          1           0       -0.881595    1.601546    0.704800
     15          1           0       -2.205610    2.508381   -0.016059
     16          1           0       -1.436891   -0.712392    1.821772
     17          1           0       -3.110817   -1.212072    1.914618
     18          1           0       -1.871479   -0.805773   -2.111864
     19          1           0       -3.329503   -1.400967   -0.468172
     20          1           0       -1.896331   -2.318011   -0.034208
     21          1           0        3.745972   -1.506801    1.067443
     22          1           0        2.515939   -0.601834    1.943971
     23          1           0        2.256986   -1.711440   -0.899058
     24          1           0        1.377939   -2.284090    0.518077
     25          1           0        4.139285    0.984440    1.011363
     26          1           0        3.927986    0.294130   -0.608257
     27          1           0        0.246557   -0.130474    0.720778
     28          1           0        0.664272    1.690354   -0.917866
     29          1           0        1.869672    0.670861   -1.726200
     30          1           0       -2.860183    1.309222    2.089386
     31          1           0       -3.828341    0.823747    0.698333
 ---------------------------------------------------------------------

 SCF Done:  E(RM062X) =  -617.492875246     A.U. after    1 cycles

 The electronic state is 1-A.
 Alpha  occ. eigenvalues --  -19.63523 -19.63102 -19.62939 -10.63982 -10.58766
 Alpha  occ. eigenvalues --  -10.58396 -10.58035 -10.57771 -10.53414 -10.53332
 Alpha  occ. eigenvalues --  -10.53276 -10.53233 -10.53214  -1.19649  -1.16563
 Alpha  occ. eigenvalues --   -1.13568  -0.90904  -0.90516  -0.87553  -0.84463
 Alpha  occ. eigenvalues --   -0.75151  -0.74199  -0.73850  -0.70494  -0.65997
 Alpha  occ. eigenvalues --   -0.64519  -0.59679  -0.58070  -0.57487  -0.55449
 Alpha  occ. eigenvalues --   -0.55009  -0.53430  -0.52398  -0.51028  -0.50538
 Alpha  occ. eigenvalues --   -0.48866  -0.47247  -0.45938  -0.45448  -0.44565
 Alpha  occ. eigenvalues --   -0.43734  -0.42722  -0.41001  -0.40534  -0.39601
 Alpha  occ. eigenvalues --   -0.38926  -0.37702  -0.37258  -0.34350  -0.33817
 Alpha  occ. eigenvalues --   -0.31471
 Alpha virt. eigenvalues --   -0.00214   0.00625   0.00886   0.01094   0.02270
 Alpha virt. eigenvalues --    0.02572   0.02677   0.03258   0.03576   0.04732
 Alpha virt. eigenvalues --    0.04843   0.05086   0.05479   0.05779   0.07470

 Mulliken charges:
               1
     1  C   -0.229878
     2  O   -0.294819
     3  C   -0.307899
     4  O   -0.289972
     5  C   -0.198837
     6  C   -0.228138
     7  C   -0.358751
     8  O   -0.249190
     9  C   -0.329894
    10  C   -0.158873
    11  C   -0.123623
    12  C   -0.388539
    13  C   -0.385703
    14  H    0.184610
    15  H    0.224919
    16  H    0.173138
    17  H    0.206783
    18  H    0.253777
    19  H    0.205454
    20  H    0.188506
    21  H    0.188969
    22  H    0.161708
    23  H    0.210271
    24  H    0.151710
    25  H    0.203869
    26  H    0.146953
    27  H    0.290337
    28  H    0.208015
    29  H    0.196928
    30  H    0.173192
    31  H    0.174979
 Sum of Mulliken charges =  -0.00000

 Dipole moment (field-independent basis, Debye):
    X=             -0.7964    Y=             -1.7586    Z=              2.6476  Tot=              3.2767
 Quadrupole moment (field-independent basis, Debye-Ang):
   XX=            -71.0812   YY=            -83.3787   ZZ=            -82.0854
   XY=             -3.5688   XZ=             -2.4557   YZ=             -0.1359

  Exact polarizability: 171.382  -0.920 158.881   1.846   2.190 155.313
 Approx polarizability: 146.488  -1.533 142.858   2.057   3.068 143.843

                      1                      2                      3
                      A                      A                      A
 Frequencies --     38.2420                60.2805                79.0075
 Red. masses --      3.6673                 3.2792                 3.9332
 Frc consts  --      0.0032                 0.0070                 0.0145
 IR Inten    --      2.0762                 1.4722                 1.6622

                      4                      5                      6
                      A                      A                      A
 Frequencies --    138.7584               195.8841               223.6197
 Red. masses --      3.4016                 3.1238                 2.5192
 Frc consts  --      0.0386                 0.0706                 0.0742
 IR Inten    --      1.9616                 2.5285                 4.5968

                      7                      8                      9
                      A                      A                      A
 Frequencies --    261.5194               289.1553               336.7381
 Red. masses --      2.0511                 3.9792                 2.4122
 Frc consts  --      0.0827                 0.1960                 0.1612
 IR Inten    --      6.7276                 9.7076                 4.0911

                     10                     11                     12
                      A                      A                      A
 Frequencies --    358.9329               404.6127               428.8295
 Red. masses --      2.1117                 2.6100                 3.7905
 Frc consts  --      0.1603                 0.2518                 0.4107
 IR Inten    --      7.5616                22.6723                 3.2800

                     13                     14                     15
                      A                      A                      A
 Frequencies --    437.9548               456.1717               491.2780
 Red. masses --      3.0929                 3.4788                 2.3703
 Frc consts  --      0.3495                 0.4265                 0.3371
 IR Inten    --      2.2299                 1.2489                 1.0977

                     16                     17                     18
                      A                      A                      A
 Frequencies --    507.0793               570.3402               590.2425
 Red. masses --      3.1656                 2.1825                 2.2933
 Frc consts  --      0.4796                 0.4183                 0.4707
 IR Inten    --      2.4779                13.2562                 0.1953

                     19                     20                     21
                      A                      A                      A
 Frequencies --    739.1850               794.7124               831.8102
 Red. masses --      3.4208                 2.1449                 1.9638
 Frc consts  --      1.1013                 0.7981                 0.8006
 IR Inten    --     10.3396                 3.4344                 5.5442

                     22                     23                     24
                      A                      A                      A
 Frequencies --    850.2135               880.6613               886.3445
 Red. masses --      2.3390                 1.4556                 2.2981
 Frc consts  --      0.9962                 0.6651                 1.0637
 IR Inten    --      1.8041                 8.5967                13.8453

                     25                     26                     27
                      A                      A                      A
 Frequencies --    897.0210               903.3354               934.2752
 Red. masses --      2.5853                 2.1514                 1.8019
 Frc consts  --      1.2257                 1.0343                 0.9267
 IR Inten    --     33.9216                15.5598                13.9436

                     28                     29                     30
                      A                      A                      A
 Frequencies --    950.6538               967.7272               997.2698
 Red. masses --      1.8758                 2.4864                 1.4918
 Frc consts  --      0.9988                 1.3719                 0.8742
 IR Inten    --     18.4142                94.9454                 8.4338

                     31                     32                     33
                      A                      A                      A
 Frequencies --   1015.4393              1050.7315              1059.4635
 Red. masses --      2.3715                 1.9236                 2.0055
 Frc consts  --      1.4407                 1.2513                 1.3263
 IR Inten    --      8.2898                 4.6407                21.3549

                     34                     35                     36
                      A                      A                      A
 Frequencies --   1065.8458              1080.6431              1103.0306
 Red. masses --      2.0276                 1.8881                 2.4317
 Frc consts  --      1.3572                 1.2991                 1.7432
 IR Inten    --    105.8212               108.9287               123.8727

                     37                     38                     39
                      A                      A                      A
 Frequencies --   1145.1428              1150.4467              1156.2267
 Red. masses --      2.4566                 3.0111                 2.6202
 Frc consts  --      1.8980                 2.3481                 2.0638
 IR Inten    --    127.3149                62.2765                45.6223

                     40                     41                     42
                      A                      A                      A
 Frequencies --   1185.2129              1196.1622              1213.9833
 Red. masses --      2.5880                 2.2742                 1.6008
 Frc consts  --      2.1419                 1.9171                 1.3900
 IR Inten    --    106.4279               100.4041                28.9293

                     43                     44                     45
                      A                      A                      A
 Frequencies --   1218.0868              1242.4156              1253.1186
 Red. masses --      1.5425                 1.8106                 1.5242
 Frc consts  --      1.3485                 1.6467                 1.4102
 IR Inten    --     73.8665                97.7899                35.1012

                     46                     47                     48
                      A                      A                      A
 Frequencies --   1300.2282              1303.6673              1322.3039
 Red. masses --      1.2367                 1.2030                 1.1763
 Frc consts  --      1.2319                 1.2046                 1.2118
 IR Inten    --     22.2265                39.5451                14.8927

                     49                     50                     51
                      A                      A                      A
 Frequencies --   1329.7664              1344.7584              1348.1149
 Red. masses --      1.2725                 1.2905                 1.1978
 Frc consts  --      1.3257                 1.3749                 1.2826
 IR Inten    --     11.9075                 0.4383                 8.0007

                     52                     53                     54
                      A                      A                      A
 Frequencies --   1362.9715              1384.4007              1387.1561
 Red. masses --      1.3326                 1.4463                 1.4499
 Frc consts  --      1.4585                 1.6332                 1.6438
 IR Inten    --      5.2731                 1.8002                 6.9444

                     55                     56                     57
                      A                      A                      A
 Frequencies --   1393.0027              1394.9407              1404.8638
 Red. masses --      1.6228                 1.4449                 1.3635
 Frc consts  --      1.8553                 1.6565                 1.5856
 IR Inten    --     13.5455                 1.8740                 0.8522

                     58                     59                     60
                      A                      A                      A
 Frequencies --   1413.0030              1425.7551              1431.2038
 Red. masses --      1.4512                 1.3610                 1.3883
 Frc consts  --      1.7071                 1.6300                 1.6755
 IR Inten    --     11.8697                11.9616                12.7775

                     61                     62                     63
                      A                      A                      A
 Frequencies --   1445.1358              1474.1764              1481.1536
 Red. masses --      1.2079                 1.0964                 1.0918
 Frc consts  --      1.4862                 1.4038                 1.4113
 IR Inten    --      4.9594                 4.7055                 7.6642

                     64                     65                     66
                      A                      A                      A
 Frequencies --   1485.5766              1495.3973              1503.9328
 Red. masses --      1.0919                 1.1101                 1.0842
 Frc consts  --      1.4197                 1.4626                 1.4449
 IR Inten    --      9.3299                11.5666                 0.3671

                     67                     68                     69
                      A                      A                      A
 Frequencies --   1509.4279              1517.3726              1529.3919
 Red. masses --      1.0998                 1.0993                 1.0882
 Frc consts  --      1.4764                 1.4912                 1.4997
 IR Inten    --     11.8765                15.3790                 3.8558

                     70                     71                     72
                      A                      A                      A
 Frequencies --   3019.3918              3021.0796              3055.2270
 Red. masses --      1.0702                 1.0705                 1.0698
 Frc consts  --      5.7487                 5.7563                 5.8833
 IR Inten    --     25.5675               110.8382                55.5195

                     73                     74                     75
                      A                      A                      A
 Frequencies --   3056.8810              3066.0864              3068.4328
 Red. masses --      1.0646                 1.0638                 1.0627
 Frc consts  --      5.8615                 5.8923                 5.8952
 IR Inten    --     11.9198                44.5894                33.4827

                     76                     77                     78
                      A                      A                      A
 Frequencies --   3069.0367              3076.2517              3101.8490
 Red. masses --      1.0676                 1.0623                 1.0845
 Frc consts  --      5.9247                 5.9227                 6.1477
 IR Inten    --     13.9908                29.6658                32.8764

                     79                     80                     81
                      A                      A                      A
 Frequencies --   3111.7447              3114.1886              3117.3710
 Red. masses --      1.0898                 1.0954                 1.0968
 Frc consts  --      6.2172                 6.2592                 6.2797
 IR Inten    --     72.5663                61.1657                18.4494

                     82                     83                     84
                      A                      A                      A
 Frequencies --   3120.3045              3122.5167              3129.2723
 Red. masses --      1.1017                 1.0973                 1.0982
 Frc consts  --      6.3200                 6.3037                 6.3361
 IR Inten    --     50.6421                68.5634                19.8376

                     85                     86                     87
                      A                      A                      A
 Frequencies --   3131.2426              3132.2106              3151.2942
 Red. masses --      1.1009                 1.0948                 1.0938
 Frc consts  --      6.3596                 6.3285                 6.3998
 IR Inten    --     75.7284                43.9924                23.0457

 - Thermochemistry -
 -------------------
 Temperature   298.150 Kelvin.  Pressure   1.00000 Atm.
 Atom     1 has atomic number  6 and mass  12.00000

 Molecular mass:   186.12559 amu.
 Principal axes and moments of inertia in atomic units:
                           1         2         3
     Eigenvalues --  1226.408963615.336893840.55999
           X            0.99993  -0.00768  -0.00872
           Y            0.00751   0.99978  -0.01936
           Z            0.00886   0.01930   0.99977
 This molecule is an asymmetric top.
 Rotational symmetry number  1.
 Warning -- assumption of classical behavior for rotation
           may cause significant error
 Rotational temperatures (Kelvin)      0.07062     0.02396     0.02255
 Rotational constants (GHZ):           1.47157     0.49919     0.46992
 Zero-point vibrational energy     737437.3 (Joules/Mol)
                                  176.25174 (Kcal/Mol)
 Warning -- explicit consideration of  18 degrees of freedom as
           vibrations may cause significant error
 Vibrational temperatures:     55.02    86.73   113.67   199.64   281.83
          (Kelvin)            321.74   376.27   416.03   484.49   516.42
                              582.15   616.99   630.12   656.33   706.84
                              729.57   820.59   849.23  1063.52  1143.41
                             1196.79  1223.27  1267.08  1275.25  1290.61
                             1299.70  1344.21  1367.78  1392.34  1434.85
                             1460.99  1511.77  1524.33  1533.51  1554.80
                             1587.02  1647.61  1655.24  1663.55  1705.26
                             1721.01  1746.65  1752.56  1787.56  1802.96
                             1870.74  1875.69  1902.50  1913.24  1934.81
                             1939.64  1961.01  1991.84  1995.81  2004.22
                             2007.01  2021.29  2033.00  2051.34  2059.18
                             2079.23  2121.01  2131.05  2137.41  2151.54
                             2163.82  2171.73  2183.16  2200.45  4344.23
                             4346.66  4395.79  4398.17  4411.41  4414.79
                             4415.66  4426.04  4462.87  4477.11  4480.62
                             4485.20  4489.42  4492.61  4502.32  4505.16
                             4506.55  4534.01

 Zero-point correction=                           0.280875 (Hartree/Particle)
 Thermal correction to Energy=                    0.292665
 Thermal correction to Enthalpy=                  0.293609
 Thermal correction to Gibbs Free Energy=         0.242441
 Sum of electronic and zero-point Energies=           -617.212000
 Sum of electronic and thermal Energies=              -617.200210
 Sum of electronic and thermal Enthalpies=            -617.199266
 Sum of electronic and thermal Free Energies=         -617.250434

                     E (Thermal)             CV                S
                      KCal/Mol        Cal/Mol-Kelvin    Cal/Mol-Kelvin
 Total                  183.650             46.848            107.692
 Electronic               0.000              0.000              0.000
 Translational            0.889              2.981             41.570
 Rotational               0.889              2.981             31.210
 Vibrational            181.873             40.887             34.912
 Vibration     1          0.594              1.982              5.348
 Vibration     2          0.597              1.973              4.448
 Vibration     3          0.600              1.963              3.915
 Vibration     4          0.614              1.915              2.821
 Vibration     5          0.636              1.846              2.171
 Vibration     6          0.649              1.805              1.930
 Vibration     7          0.669              1.743              1.652
 Vibration     8          0.686              1.694              1.479
 Vibration     9          0.717              1.602              1.228
 Vibration    10          0.734              1.557              1.127
 Vibration    11          0.770              1.460              0.946
 Vibration    12          0.790              1.407              0.862
 Vibration    13          0.798              1.387              0.833
 Vibration    14          0.814              1.347              0.777
 Vibration    15          0.847              1.269              0.680
 Vibration    16          0.862              1.234              0.641
 Vibration    17          0.926              1.095              0.504
 Vibration    18          0.948              1.053              0.467

 Optimization completed.
    -- Stationary point found.
 Normal termination of Gaussian 16 at Sun Nov  4 23:02:34 2018.
