 Gaussian 16, Revision A.03,
 Gaussian 16:  ES64L-G16RevA.03 25-Dec-2016

 ----------------------------------------------------------------------
 #M062X/6-311++G(2d,2p) opt=ModRedundant freq=noraman SCRF=(Solvent=Wat
 er)
 ----------------------------------------------------------------------

 -----------------------------
 2SO_1_e4_D_PHI.inp_extract_17
 -----------------------------
 Symbolic Z-matrix:
 Charge =  0 Multiplicity = 1

 SCF Done:  E(RM062X) =  -617.492389541     A.U. after   12 cycles
 SCF Done:  E(RM062X) =  -617.493981805     A.U. after   10 cycles
 SCF Done:  E(RM062X) =  -617.494220848     A.U. after   10 cycles
 SCF Done:  E(RM062X) =  -617.494314760     A.U. after   10 cycles
 SCF Done:  E(RM062X) =  -617.494332974     A.U. after    9 cycles
 SCF Done:  E(RM062X) =  -617.494336221     A.U. after    8 cycles
 SCF Done:  E(RM062X) =  -617.494336526     A.U. after    7 cycles
 SCF Done:  E(RM062X) =  -617.494336597     A.U. after    6 cycles
 Optimization completed.
    -- Stationary point found.
 Normal termination of Gaussian 16 at Mon Nov  5 00:09:56 2018.

 ----------------------------------------------------------------------
 #N Geom=AllCheck Guess=TCheck SCRF=Check GenChk RM062X/6-311++G(2d,2p)
  Freq
 ----------------------------------------------------------------------

 Structure from the checkpoint file:  "2SO_1_e4_D_PHI.inp_extract_17.chk"
 -----------------------------
 2SO_1_e4_D_PHI.inp_extract_17
 -----------------------------
 Charge =  0 Multiplicity = 1

                         Standard orientation:
 ---------------------------------------------------------------------
 Center     Atomic      Atomic             Coordinates (Angstroms)
 Number     Number       Type             X           Y           Z
 ---------------------------------------------------------------------
      1          6           0        1.081049   -0.142946   -0.162541
      2          6           0       -3.900609   -0.026520   -0.517074
      3          6           0       -1.174672    0.154909    0.610417
      4          6           0       -3.070595   -1.149625    0.111214
      5          6           0       -3.079330    1.272748   -0.531235
      6          6           0        1.698598    0.911117    0.751097
      7          6           0        2.057508   -1.296641   -0.354015
      8          6           0        3.931493    0.068556   -0.007006
      9          8           0        3.288888   -0.848903   -0.883204
     10          6           0        3.075886    1.304512    0.213449
     11          8           0       -0.096801   -0.733212    0.363411
     12          6           0       -1.594870    0.933057   -0.639571
     13          8           0       -2.218205   -0.620991    1.126049
     14          1           0        0.878761    0.300270   -1.143807
     15          1           0       -4.826147    0.117709    0.038549
     16          1           0       -4.171362   -0.317082   -1.532952
     17          1           0       -0.902128    0.841921    1.415122
     18          1           0       -3.696095   -1.894081    0.596204
     19          1           0       -2.462994   -1.658539   -0.639922
     20          1           0       -3.247145    1.827713    0.393055
     21          1           0       -3.388187    1.917639   -1.351432
     22          1           0        1.060386    1.791960    0.825447
     23          1           0        1.794670    0.483667    1.753453
     24          1           0        1.648198   -2.022625   -1.053733
     25          1           0        2.216171   -1.789389    0.613437
     26          1           0        4.132152   -0.428186    0.950105
     27          1           0        4.882264    0.320339   -0.471671
     28          1           0        3.578081    1.979212    0.906700
     29          1           0        2.966034    1.831401   -0.736859
     30          1           0       -1.416670    0.318148   -1.524959
     31          1           0       -0.983802    1.829756   -0.735190
 ---------------------------------------------------------------------

 SCF Done:  E(RM062X) =  -617.494336597     A.U. after    1 cycles

 The electronic state is 1-A.
 Alpha  occ. eigenvalues --  -19.63382 -19.63219 -19.63169 -10.63819 -10.58922
 Alpha  occ. eigenvalues --  -10.58172 -10.58110 -10.58035 -10.53457 -10.53456
 Alpha  occ. eigenvalues --  -10.53402 -10.53378 -10.53004  -1.20219  -1.16817
 Alpha  occ. eigenvalues --   -1.13904  -0.90337  -0.90232  -0.87443  -0.84484
 Alpha  occ. eigenvalues --   -0.75287  -0.74655  -0.73287  -0.70387  -0.65936
 Alpha  occ. eigenvalues --   -0.62130  -0.61118  -0.58929  -0.57951  -0.57218
 Alpha  occ. eigenvalues --   -0.54779  -0.53110  -0.52569  -0.50576  -0.49230
 Alpha  occ. eigenvalues --   -0.48461  -0.47153  -0.46184  -0.45465  -0.44934
 Alpha  occ. eigenvalues --   -0.44364  -0.42494  -0.41240  -0.40723  -0.39370
 Alpha  occ. eigenvalues --   -0.38852  -0.37747  -0.36980  -0.34792  -0.33311
 Alpha  occ. eigenvalues --   -0.32217
 Alpha virt. eigenvalues --   -0.00117   0.00781   0.00856   0.01041   0.02144
 Alpha virt. eigenvalues --    0.02453   0.02617   0.03657   0.03843   0.04240
 Alpha virt. eigenvalues --    0.04565   0.04616   0.05498   0.06089   0.06797

 Mulliken charges:
               1
     1  C   -0.110382
     2  C   -0.467507
     3  C   -0.286495
     4  C   -0.080881
     5  C   -0.394621
     6  C   -0.220943
     7  C   -0.183721
     8  C   -0.217977
     9  O   -0.331517
    10  C   -0.405103
    11  O   -0.356653
    12  C   -0.131081
    13  O   -0.289534
    14  H    0.271808
    15  H    0.159908
    16  H    0.152072
    17  H    0.281466
    18  H    0.208636
    19  H    0.161132
    20  H    0.164298
    21  H    0.176294
    22  H    0.166969
    23  H    0.234806
    24  H    0.201164
    25  H    0.188351
    26  H    0.142974
    27  H    0.210175
    28  H    0.177327
    29  H    0.163619
    30  H    0.230567
    31  H    0.184849
 Sum of Mulliken charges =  -0.00000

 Dipole moment (field-independent basis, Debye):
    X=             -0.6486    Y=              3.1721    Z=             -0.8168  Tot=              3.3392
 Quadrupole moment (field-independent basis, Debye-Ang):
   XX=            -75.4611   YY=            -79.5932   ZZ=            -83.7413
   XY=              4.4895   XZ=             10.6011   YZ=              1.2338

  Exact polarizability: 179.577   4.440 157.297   0.922   0.063 147.733
 Approx polarizability: 148.403   3.380 142.055  -0.764   0.356 141.318

                      1                      2                      3
                      A                      A                      A
 Frequencies --     47.9395                57.6767                86.7334
 Red. masses --      3.4796                 3.5650                 3.1130
 Frc consts  --      0.0047                 0.0070                 0.0138
 IR Inten    --      2.4623                 1.5427                 0.1208

                      4                      5                      6
                      A                      A                      A
 Frequencies --    135.6758               179.2978               202.4869
 Red. masses --      3.4283                 2.9477                 1.9634
 Frc consts  --      0.0372                 0.0558                 0.0474
 IR Inten    --      2.0363                 2.5817                 0.9227

                      7                      8                      9
                      A                      A                      A
 Frequencies --    247.4677               267.5366               294.6668
 Red. masses --      1.9694                 2.6313                 4.2482
 Frc consts  --      0.0711                 0.1110                 0.2173
 IR Inten    --      5.5570                 0.9853                 6.4249

                     10                     11                     12
                      A                      A                      A
 Frequencies --    372.3605               401.4158               430.0435
 Red. masses --      2.4069                 3.8361                 2.7713
 Frc consts  --      0.1966                 0.3642                 0.3020
 IR Inten    --     13.0640                11.6091                 3.1046

                     13                     14                     15
                      A                      A                      A
 Frequencies --    451.4632               474.5619               505.7690
 Red. masses --      3.1595                 2.7694                 3.0045
 Frc consts  --      0.3794                 0.3675                 0.4528
 IR Inten    --      5.0411                 1.1215                 1.1611

                     16                     17                     18
                      A                      A                      A
 Frequencies --    530.0792               571.6910               635.9940
 Red. masses --      4.2531                 2.3797                 2.0026
 Frc consts  --      0.7041                 0.4582                 0.4772
 IR Inten    --      8.4753                 5.3970                 6.0765

                     19                     20                     21
                      A                      A                      A
 Frequencies --    680.2440               781.4976               828.5678
 Red. masses --      3.6654                 1.3046                 2.2307
 Frc consts  --      0.9993                 0.4695                 0.9023
 IR Inten    --     16.6959                 3.5234                 0.4298

                     22                     23                     24
                      A                      A                      A
 Frequencies --    843.8961               876.9835               894.0526
 Red. masses --      2.4563                 1.4141                 2.6261
 Frc consts  --      1.0306                 0.6408                 1.2368
 IR Inten    --      3.1624                15.1327                 4.9070

                     25                     26                     27
                      A                      A                      A
 Frequencies --    899.7349               927.9722               942.7652
 Red. masses --      2.4010                 2.2355                 2.1612
 Frc consts  --      1.1452                 1.1342                 1.1318
 IR Inten    --      9.6612                37.7272                40.5617

                     28                     29                     30
                      A                      A                      A
 Frequencies --    967.9265               988.2206              1002.7203
 Red. masses --      1.7632                 2.5628                 1.5017
 Frc consts  --      0.9733                 1.4746                 0.8896
 IR Inten    --      1.5450                24.8137                12.1949

                     31                     32                     33
                      A                      A                      A
 Frequencies --   1007.9284              1061.9486              1066.3590
 Red. masses --      1.9551                 1.6846                 2.8927
 Frc consts  --      1.1702                 1.1193                 1.9380
 IR Inten    --     13.7582                10.9749                45.1289

                     34                     35                     36
                      A                      A                      A
 Frequencies --   1077.7714              1092.3525              1132.2750
 Red. masses --      2.4379                 2.0761                 4.8885
 Frc consts  --      1.6684                 1.4596                 3.6926
 IR Inten    --    187.7059                24.5670               437.6198

                     37                     38                     39
                      A                      A                      A
 Frequencies --   1152.9837              1154.6328              1163.5867
 Red. masses --      2.9369                 2.9367                 2.5704
 Frc consts  --      2.3003                 2.3068                 2.0504
 IR Inten    --     39.0423               163.2455                30.0912

                     40                     41                     42
                      A                      A                      A
 Frequencies --   1175.5929              1188.2856              1208.8077
 Red. masses --      2.3605                 2.4751                 1.3896
 Frc consts  --      1.9221                 2.0591                 1.1963
 IR Inten    --     25.3907                31.0963                 8.0939

                     43                     44                     45
                      A                      A                      A
 Frequencies --   1211.6434              1248.3648              1259.7800
 Red. masses --      1.4934                 1.5984                 1.6420
 Frc consts  --      1.2917                 1.4677                 1.5354
 IR Inten    --     41.7536                 2.0428                87.8394

                     46                     47                     48
                      A                      A                      A
 Frequencies --   1290.4822              1302.5577              1308.9100
 Red. masses --      1.2105                 1.1867                 1.1733
 Frc consts  --      1.1877                 1.1862                 1.1844
 IR Inten    --      8.5680                 4.2678                10.8612

                     49                     50                     51
                      A                      A                      A
 Frequencies --   1332.3948              1342.2987              1351.6092
 Red. masses --      1.2770                 1.2561                 1.2789
 Frc consts  --      1.3356                 1.3334                 1.3765
 IR Inten    --      9.2404                 0.3590                 1.4262

                     52                     53                     54
                      A                      A                      A
 Frequencies --   1358.1352              1368.2615              1370.1390
 Red. masses --      1.2315                 1.4098                 1.3677
 Frc consts  --      1.3383                 1.5551                 1.5128
 IR Inten    --      8.0781                 3.8754                 0.3257

                     55                     56                     57
                      A                      A                      A
 Frequencies --   1384.5033              1400.0691              1403.1485
 Red. masses --      1.4223                 1.4033                 1.3744
 Frc consts  --      1.6063                 1.6207                 1.5943
 IR Inten    --     11.6520                47.3115                 9.7297

                     58                     59                     60
                      A                      A                      A
 Frequencies --   1406.7017              1416.1748              1432.5429
 Red. masses --      1.3592                 1.4192                 1.4240
 Frc consts  --      1.5846                 1.6770                 1.7218
 IR Inten    --     11.3521                 5.5212                 5.8477

                     61                     62                     63
                      A                      A                      A
 Frequencies --   1438.6445              1481.8112              1487.7245
 Red. masses --      1.3845                 1.0908                 1.0787
 Frc consts  --      1.6883                 1.4112                 1.4067
 IR Inten    --     16.7355                 9.0722                 2.9068

                     64                     65                     66
                      A                      A                      A
 Frequencies --   1492.8393              1496.9808              1501.6091
 Red. masses --      1.1033                 1.1032                 1.0870
 Frc consts  --      1.4487                 1.4566                 1.4441
 IR Inten    --     10.5963                 4.9831                 0.4741

                     67                     68                     69
                      A                      A                      A
 Frequencies --   1503.6797              1514.5559              1525.5791
 Red. masses --      1.0984                 1.1014                 1.0872
 Frc consts  --      1.4632                 1.4886                 1.4909
 IR Inten    --     10.2218                 8.1461                 3.7873

                     70                     71                     72
                      A                      A                      A
 Frequencies --   3019.7139              3021.8304              3041.8487
 Red. masses --      1.0695                 1.0704                 1.0800
 Frc consts  --      5.7458                 5.7588                 5.8876
 IR Inten    --     25.2765                92.3631                38.7776

                     73                     74                     75
                      A                      A                      A
 Frequencies --   3057.4022              3063.6443              3069.1517
 Red. masses --      1.0659                 1.0729                 1.0699
 Frc consts  --      5.8703                 5.9330                 5.9380
 IR Inten    --     39.5172                46.2866                17.4221

                     76                     77                     78
                      A                      A                      A
 Frequencies --   3071.1390              3073.5786              3078.2136
 Red. masses --      1.0708                 1.0683                 1.0613
 Frc consts  --      5.9505                 5.9459                 5.9251
 IR Inten    --     30.8094                48.6903                56.4311

                     79                     80                     81
                      A                      A                      A
 Frequencies --   3081.3045              3113.1839              3118.8470
 Red. masses --      1.0655                 1.0983                 1.0994
 Frc consts  --      5.9606                 6.2714                 6.3006
 IR Inten    --     37.2694                42.9934                29.8741

                     82                     83                     84
                      A                      A                      A
 Frequencies --   3120.5476              3126.5509              3133.2275
 Red. masses --      1.1024                 1.1000                 1.0956
 Frc consts  --      6.3250                 6.3357                 6.3369
 IR Inten    --     50.9175                45.2421                29.9710

                     85                     86                     87
                      A                      A                      A
 Frequencies --   3133.2760              3136.0714              3149.0698
 Red. masses --      1.1013                 1.0952                 1.1002
 Frc consts  --      6.3704                 6.3464                 6.4284
 IR Inten    --     55.4480                39.8343                47.2294

 - Thermochemistry -
 -------------------
 Temperature   298.150 Kelvin.  Pressure   1.00000 Atm.
 Atom     1 has atomic number  6 and mass  12.00000

 Molecular mass:   186.12559 amu.
 Principal axes and moments of inertia in atomic units:
                           1         2         3
     Eigenvalues --   851.282294817.104915103.74775
           X            0.99991   0.00377   0.01320
           Y           -0.00390   0.99994   0.01017
           Z           -0.01316  -0.01022   0.99986
 This molecule is an asymmetric top.
 Rotational symmetry number  1.
 Warning -- assumption of classical behavior for rotation
           may cause significant error
 Rotational temperatures (Kelvin)      0.10175     0.01798     0.01697
 Rotational constants (GHZ):           2.12003     0.37465     0.35361
 Zero-point vibrational energy     737197.0 (Joules/Mol)
                                  176.19430 (Kcal/Mol)
 Warning -- explicit consideration of  17 degrees of freedom as
           vibrations may cause significant error
 Vibrational temperatures:     68.97    82.98   124.79   195.21   257.97
          (Kelvin)            291.33   356.05   384.93   423.96   535.74
                              577.55   618.74   649.55   682.79   727.69
                              762.67   822.54   915.05   978.72  1124.40
                             1192.12  1214.18  1261.78  1286.34  1294.52
                             1335.15  1356.43  1392.63  1421.83  1442.69
                             1450.18  1527.91  1534.25  1550.67  1571.65
                             1629.09  1658.89  1661.26  1674.14  1691.42
                             1709.68  1739.20  1743.28  1796.12  1812.54
                             1856.72  1874.09  1883.23  1917.02  1931.27
                             1944.66  1954.05  1968.62  1971.32  1991.99
                             2014.39  2018.82  2023.93  2037.56  2061.11
                             2069.89  2132.00  2140.50  2147.86  2153.82
                             2160.48  2163.46  2179.11  2194.97  4344.69
                             4347.74  4376.54  4398.92  4407.90  4415.82
                             4418.68  4422.19  4428.86  4433.31  4479.18
                             4487.33  4489.77  4498.41  4508.02  4508.09
                             4512.11  4530.81

 Zero-point correction=                           0.280783 (Hartree/Particle)
 Thermal correction to Energy=                    0.292626
 Thermal correction to Enthalpy=                  0.293571
 Thermal correction to Gibbs Free Energy=         0.242296
 Sum of electronic and zero-point Energies=           -617.213553
 Sum of electronic and thermal Energies=              -617.201710
 Sum of electronic and thermal Enthalpies=            -617.200766
 Sum of electronic and thermal Free Energies=         -617.252041

                     E (Thermal)             CV                S
                      KCal/Mol        Cal/Mol-Kelvin    Cal/Mol-Kelvin
 Total                  183.626             46.786            107.917
 Electronic               0.000              0.000              0.000
 Translational            0.889              2.981             41.570
 Rotational               0.889              2.981             31.415
 Vibrational            181.848             40.824             34.932
 Vibration     1          0.595              1.978              4.901
 Vibration     2          0.596              1.974              4.535
 Vibration     3          0.601              1.958              3.732
 Vibration     4          0.614              1.918              2.864
 Vibration     5          0.629              1.868              2.336
 Vibration     6          0.639              1.836              2.110
 Vibration     7          0.661              1.767              1.749
 Vibration     8          0.673              1.733              1.612
 Vibration     9          0.689              1.684              1.447
 Vibration    10          0.744              1.529              1.070
 Vibration    11          0.767              1.467              0.957
 Vibration    12          0.791              1.405              0.859
 Vibration    13          0.810              1.358              0.791
 Vibration    14          0.831              1.306              0.725
 Vibration    15          0.861              1.237              0.644
 Vibration    16          0.885              1.183              0.587
 Vibration    17          0.928              1.092              0.501

 Optimization completed.
    -- Stationary point found.
 Normal termination of Gaussian 16 at Mon Nov  5 01:03:59 2018.
