 Gaussian 16, Revision A.03,
 Gaussian 16:  ES64L-G16RevA.03 25-Dec-2016

 ----------------------------------------------------------------------
 #M062X/6-311++G(2d,2p) opt=ModRedundant freq=noraman SCRF=(Solvent=Wat
 er)
 ----------------------------------------------------------------------

 ----------------------------
 2SO_1_e4_D_PHI.inp_extract_2
 ----------------------------
 Symbolic Z-matrix:
 Charge =  0 Multiplicity = 1

 SCF Done:  E(RM062X) =  -617.495254879     A.U. after   12 cycles
 SCF Done:  E(RM062X) =  -617.497009599     A.U. after   10 cycles
 SCF Done:  E(RM062X) =  -617.497293255     A.U. after   10 cycles
 SCF Done:  E(RM062X) =  -617.497383540     A.U. after   10 cycles
 SCF Done:  E(RM062X) =  -617.497404213     A.U. after    9 cycles
 SCF Done:  E(RM062X) =  -617.497407636     A.U. after    8 cycles
 SCF Done:  E(RM062X) =  -617.497407947     A.U. after    7 cycles
 Optimization completed.
    -- Stationary point found.
 Normal termination of Gaussian 16 at Mon Nov  5 00:12:24 2018.

 ----------------------------------------------------------------------
 #N Geom=AllCheck Guess=TCheck SCRF=Check GenChk RM062X/6-311++G(2d,2p)
  Freq
 ----------------------------------------------------------------------

 Structure from the checkpoint file:  "2SO_1_e4_D_PHI.inp_extract_2.chk"
 ----------------------------
 2SO_1_e4_D_PHI.inp_extract_2
 ----------------------------
 Charge =  0 Multiplicity = 1

                         Standard orientation:
 ---------------------------------------------------------------------
 Center     Atomic      Atomic             Coordinates (Angstroms)
 Number     Number       Type             X           Y           Z
 ---------------------------------------------------------------------
      1          6           0        1.074801   -0.356790   -0.205957
      2          6           0       -3.562445    0.990293    0.173184
      3          6           0       -1.275218   -0.783443   -0.400600
      4          6           0       -2.085675    1.378966    0.057579
      5          6           0       -3.715074   -0.528134   -0.016822
      6          6           0        1.379709    1.005273    0.401100
      7          6           0        2.216547   -1.323915    0.085001
      8          6           0        3.801100    0.401656    0.234849
      9          8           0        3.452908   -0.827220   -0.390420
     10          6           0        2.763600    1.474445   -0.050752
     11          8           0       -0.094682   -0.942553    0.353591
     12          6           0       -2.448540   -1.233513    0.461037
     13          8           0       -1.427215    0.530668   -0.882626
     14          1           0        0.963465   -0.262827   -1.290520
     15          1           0       -4.153405    1.524187   -0.569726
     16          1           0       -3.926519    1.290178    1.156666
     17          1           0       -1.196965   -1.389423   -1.308613
     18          1           0       -1.958571    2.396921   -0.302420
     19          1           0       -1.583377    1.300528    1.025207
     20          1           0       -3.867206   -0.754373   -1.073224
     21          1           0       -4.587240   -0.898892    0.517738
     22          1           0        0.611884    1.724120    0.121143
     23          1           0        1.360945    0.900395    1.489959
     24          1           0        2.039455   -2.276655   -0.410243
     25          1           0        2.268855   -1.495470    1.167825
     26          1           0        3.891239    0.242343    1.316440
     27          1           0        4.778288    0.676794   -0.156124
     28          1           0        3.041708    2.397417    0.458441
     29          1           0        2.755565    1.680180   -1.123457
     30          1           0       -2.241354   -0.975031    1.501172
     31          1           0       -2.537684   -2.316565    0.403664
 ---------------------------------------------------------------------

 SCF Done:  E(RM062X) =  -617.497407947     A.U. after    1 cycles

 The electronic state is 1-A.
 Alpha  occ. eigenvalues --  -19.63292 -19.63199 -19.63073 -10.63703 -10.58582
 Alpha  occ. eigenvalues --  -10.58055 -10.57995 -10.57948 -10.53325 -10.53286
 Alpha  occ. eigenvalues --  -10.53173 -10.53013 -10.52903  -1.20174  -1.16604
 Alpha  occ. eigenvalues --   -1.13682  -0.90965  -0.89736  -0.87260  -0.84143
 Alpha  occ. eigenvalues --   -0.75386  -0.74004  -0.73290  -0.70109  -0.65518
 Alpha  occ. eigenvalues --   -0.62732  -0.60089  -0.59344  -0.58598  -0.56592
 Alpha  occ. eigenvalues --   -0.55058  -0.52711  -0.52360  -0.49456  -0.49071
 Alpha  occ. eigenvalues --   -0.47927  -0.47632  -0.46190  -0.45480  -0.44549
 Alpha  occ. eigenvalues --   -0.44376  -0.42241  -0.40697  -0.40641  -0.39249
 Alpha  occ. eigenvalues --   -0.38611  -0.37859  -0.36110  -0.34980  -0.34387
 Alpha  occ. eigenvalues --   -0.31801
 Alpha virt. eigenvalues --   -0.00080   0.00742   0.00830   0.01082   0.02150
 Alpha virt. eigenvalues --    0.02505   0.02585   0.03552   0.03623   0.04185
 Alpha virt. eigenvalues --    0.04737   0.04897   0.05645   0.05753   0.06950

 Mulliken charges:
               1
     1  C    0.028968
     2  C   -0.585491
     3  C   -0.370178
     4  C    0.030866
     5  C   -0.203338
     6  C   -0.252537
     7  C   -0.289774
     8  C   -0.217022
     9  O   -0.336063
    10  C   -0.344677
    11  O   -0.267428
    12  C   -0.273889
    13  O   -0.277869
    14  H    0.243373
    15  H    0.164557
    16  H    0.153107
    17  H    0.236085
    18  H    0.226334
    19  H    0.130615
    20  H    0.158289
    21  H    0.194129
    22  H    0.169355
    23  H    0.230867
    24  H    0.197830
    25  H    0.182223
    26  H    0.139139
    27  H    0.209664
    28  H    0.173067
    29  H    0.168044
    30  H    0.196192
    31  H    0.185561
 Sum of Mulliken charges =  -0.00000

 Dipole moment (field-independent basis, Debye):
    X=             -2.2462    Y=              1.7258    Z=              1.4472  Tot=              3.1809
 Quadrupole moment (field-independent basis, Debye-Ang):
   XX=            -77.8894   YY=            -77.7543   ZZ=            -82.0116
   XY=              6.1628   XZ=              1.9573   YZ=              2.0082

  Exact polarizability: 176.243   2.269 162.264   0.240   0.916 147.521
 Approx polarizability: 145.738   1.238 144.286  -0.290   0.417 142.418

                      1                      2                      3
                      A                      A                      A
 Frequencies --     51.8834                65.4233                90.9945
 Red. masses --      3.3051                 3.8740                 3.4961
 Frc consts  --      0.0052                 0.0098                 0.0171
 IR Inten    --      0.2509                 1.7022                 0.4813

                      4                      5                      6
                      A                      A                      A
 Frequencies --    116.1597               191.1954               204.6167
 Red. masses --      3.4079                 2.7928                 1.8412
 Frc consts  --      0.0271                 0.0602                 0.0454
 IR Inten    --      4.9658                 1.1941                 1.1778

                      7                      8                      9
                      A                      A                      A
 Frequencies --    246.3007               267.6969               290.7313
 Red. masses --      1.9758                 4.5364                 2.6388
 Frc consts  --      0.0706                 0.1915                 0.1314
 IR Inten    --      4.4630                 0.4769                 4.9360

                     10                     11                     12
                      A                      A                      A
 Frequencies --    353.3138               380.7032               438.6561
 Red. masses --      3.4258                 2.3347                 3.8983
 Frc consts  --      0.2520                 0.1994                 0.4420
 IR Inten    --     20.2056                14.4802                 2.8597

                     13                     14                     15
                      A                      A                      A
 Frequencies --    449.0179               476.0054               506.7168
 Red. masses --      2.5487                 3.1804                 2.6446
 Frc consts  --      0.3028                 0.4246                 0.4001
 IR Inten    --      6.1673                 1.0513                 5.7908

                     16                     17                     18
                      A                      A                      A
 Frequencies --    539.4704               617.3624               634.5128
 Red. masses --      3.5630                 2.3249                 2.0686
 Frc consts  --      0.6109                 0.5221                 0.4907
 IR Inten    --      1.2153                11.6427                 4.1760

                     19                     20                     21
                      A                      A                      A
 Frequencies --    657.6112               785.1440               830.7991
 Red. masses --      4.6816                 1.3081                 2.1634
 Frc consts  --      1.1928                 0.4751                 0.8798
 IR Inten    --     10.4661                 5.6682                 0.2046

                     22                     23                     24
                      A                      A                      A
 Frequencies --    840.7245               877.6009               893.8704
 Red. masses --      2.6525                 1.3982                 2.6330
 Frc consts  --      1.1046                 0.6345                 1.2395
 IR Inten    --      7.3941                12.8040                 7.6987

                     25                     26                     27
                      A                      A                      A
 Frequencies --    898.9988               922.9040               942.9441
 Red. masses --      2.3733                 2.1415                 2.2782
 Frc consts  --      1.1301                 1.0747                 1.1935
 IR Inten    --      7.6104                31.5926                53.2756

                     28                     29                     30
                      A                      A                      A
 Frequencies --    965.6615               985.9977               996.3461
 Red. masses --      1.8495                 2.3272                 1.4864
 Frc consts  --      1.0161                 1.3330                 0.8694
 IR Inten    --     16.5421                33.4154                 3.4339

                     31                     32                     33
                      A                      A                      A
 Frequencies --   1007.9437              1056.4926              1071.2494
 Red. masses --      1.9071                 1.7050                 2.0454
 Frc consts  --      1.1415                 1.1212                 1.3830
 IR Inten    --      6.1333                 7.3627               160.8256

                     34                     35                     36
                      A                      A                      A
 Frequencies --   1078.8954              1085.1111              1111.1106
 Red. masses --      2.7101                 2.5705                 4.4731
 Frc consts  --      1.8586                 1.7833                 3.2537
 IR Inten    --      6.4431                66.6574               306.5747

                     37                     38                     39
                      A                      A                      A
 Frequencies --   1149.4388              1154.9741              1160.8261
 Red. masses --      2.7419                 2.8138                 3.2431
 Frc consts  --      2.1344                 2.2115                 2.5748
 IR Inten    --     19.5963               165.9774               185.5395

                     40                     41                     42
                      A                      A                      A
 Frequencies --   1169.8885              1191.7061              1209.8594
 Red. masses --      2.3132                 2.2317                 1.4532
 Frc consts  --      1.8653                 1.8674                 1.2533
 IR Inten    --     25.6026                40.4235                15.2997

                     43                     44                     45
                      A                      A                      A
 Frequencies --   1218.2912              1245.6802              1248.0004
 Red. masses --      1.4940                 1.7145                 1.4822
 Frc consts  --      1.3065                 1.5675                 1.3601
 IR Inten    --      4.7063                61.5273                29.9275

                     46                     47                     48
                      A                      A                      A
 Frequencies --   1289.3540              1303.8104              1309.1303
 Red. masses --      1.2065                 1.1841                 1.1790
 Frc consts  --      1.1817                 1.1859                 1.1905
 IR Inten    --      2.0992                21.6170                10.0585

                     49                     50                     51
                      A                      A                      A
 Frequencies --   1329.3560              1337.6370              1344.1362
 Red. masses --      1.3023                 1.2315                 1.2660
 Frc consts  --      1.3559                 1.2982                 1.3477
 IR Inten    --      7.6969                 6.8727                 5.6555

                     52                     53                     54
                      A                      A                      A
 Frequencies --   1353.8386              1368.0138              1372.6213
 Red. masses --      1.2652                 1.4101                 1.4000
 Frc consts  --      1.3663                 1.5548                 1.5541
 IR Inten    --     13.5795                 1.8945                 1.9899

                     55                     56                     57
                      A                      A                      A
 Frequencies --   1382.1560              1390.2660              1401.7583
 Red. masses --      1.4454                 1.4894                 1.4082
 Frc consts  --      1.6269                 1.6961                 1.6303
 IR Inten    --      7.3533                21.1806                41.3558

                     58                     59                     60
                      A                      A                      A
 Frequencies --   1408.6028              1418.6439              1437.0769
 Red. masses --      1.2979                 1.4137                 1.4018
 Frc consts  --      1.5173                 1.6763                 1.7057
 IR Inten    --      2.2023                 4.9254                23.1062

                     61                     62                     63
                      A                      A                      A
 Frequencies --   1440.3394              1480.3662              1488.1555
 Red. masses --      1.3925                 1.0900                 1.0781
 Frc consts  --      1.7021                 1.4074                 1.4068
 IR Inten    --      3.0478                 8.0413                 3.2632

                     64                     65                     66
                      A                      A                      A
 Frequencies --   1494.4520              1495.0559              1500.8983
 Red. masses --      1.1100                 1.0965                 1.0867
 Frc consts  --      1.4606                 1.4440                 1.4423
 IR Inten    --      9.5081                 9.4357                 0.6670

                     67                     68                     69
                      A                      A                      A
 Frequencies --   1503.9863              1514.6623              1524.8452
 Red. masses --      1.0992                 1.1014                 1.0867
 Frc consts  --      1.4649                 1.4887                 1.4888
 IR Inten    --     10.7013                 8.8522                 4.0198

                     70                     71                     72
                      A                      A                      A
 Frequencies --   3017.4167              3020.6349              3048.2759
 Red. masses --      1.0693                 1.0705                 1.0840
 Frc consts  --      5.7359                 5.7546                 5.9346
 IR Inten    --     38.7293                95.0894                81.6404

                     73                     74                     75
                      A                      A                      A
 Frequencies --   3051.7919              3061.4353              3061.7755
 Red. masses --      1.0764                 1.0692                 1.0751
 Frc consts  --      5.9064                 5.9043                 5.9381
 IR Inten    --      9.2426                20.3387                53.1780

                     76                     77                     78
                      A                      A                      A
 Frequencies --   3068.6113              3076.8197              3080.1974
 Red. masses --      1.0626                 1.0659                 1.0636
 Frc consts  --      5.8952                 5.9450                 5.9454
 IR Inten    --     67.6199                13.8805                37.8016

                     79                     80                     81
                      A                      A                      A
 Frequencies --   3084.3226              3116.7637              3118.7063
 Red. masses --      1.0629                 1.1008                 1.0994
 Frc consts  --      5.9573                 6.3004                 6.3004
 IR Inten    --     47.2504                51.4170                28.5131

                     82                     83                     84
                      A                      A                      A
 Frequencies --   3131.9087              3133.5574              3134.1545
 Red. masses --      1.0944                 1.0958                 1.0997
 Frc consts  --      6.3248                 6.3392                 6.3645
 IR Inten    --     52.0477                66.0324                 9.6888

                     85                     86                     87
                      A                      A                      A
 Frequencies --   3136.5639              3137.5860              3144.7011
 Red. masses --      1.0974                 1.1001                 1.1003
 Frc consts  --      6.3608                 6.3806                 6.4112
 IR Inten    --     58.5653                39.7409                29.7702

 - Thermochemistry -
 -------------------
 Temperature   298.150 Kelvin.  Pressure   1.00000 Atm.
 Atom     1 has atomic number  6 and mass  12.00000

 Molecular mass:   186.12559 amu.
 Principal axes and moments of inertia in atomic units:
                           1         2         3
     Eigenvalues --   855.675994442.936884998.04093
           X            0.99996   0.00849   0.00095
           Y           -0.00850   0.99991   0.00997
           Z           -0.00087  -0.00997   0.99995
 This molecule is an asymmetric top.
 Rotational symmetry number  1.
 Warning -- assumption of classical behavior for rotation
           may cause significant error
 Rotational temperatures (Kelvin)      0.10122     0.01949     0.01733
 Rotational constants (GHZ):           2.10914     0.40620     0.36109
 Zero-point vibrational energy     736859.1 (Joules/Mol)
                                  176.11354 (Kcal/Mol)
 Warning -- explicit consideration of  17 degrees of freedom as
           vibrations may cause significant error
 Vibrational temperatures:     74.65    94.13   130.92   167.13   275.09
          (Kelvin)            294.40   354.37   385.16   418.30   508.34
                              547.75   631.13   646.04   684.87   729.05
                              776.18   888.25   912.92   946.16  1129.65
                             1195.33  1209.61  1262.67  1286.08  1293.46
                             1327.85  1356.69  1389.37  1418.63  1433.52
                             1450.21  1520.06  1541.29  1552.29  1561.23
                             1598.64  1653.79  1661.75  1670.17  1683.21
                             1714.60  1740.72  1752.85  1792.26  1795.59
                             1855.09  1875.89  1883.55  1912.65  1924.56
                             1933.91  1947.87  1968.27  1974.90  1988.61
                             2000.28  2016.82  2026.67  2041.11  2067.63
                             2072.33  2129.92  2141.12  2150.18  2151.05
                             2159.46  2163.90  2179.26  2193.91  4341.39
                             4346.02  4385.79  4390.85  4404.72  4405.21
                             4415.05  4426.86  4431.72  4437.65  4484.33
                             4487.12  4506.12  4508.49  4509.35  4512.82
                             4514.29  4524.52

 Zero-point correction=                           0.280655 (Hartree/Particle)
 Thermal correction to Energy=                    0.292503
 Thermal correction to Enthalpy=                  0.293448
 Thermal correction to Gibbs Free Energy=         0.242326
 Sum of electronic and zero-point Energies=           -617.216753
 Sum of electronic and thermal Energies=              -617.204905
 Sum of electronic and thermal Enthalpies=            -617.203960
 Sum of electronic and thermal Free Energies=         -617.255082

                     E (Thermal)             CV                S
                      KCal/Mol        Cal/Mol-Kelvin    Cal/Mol-Kelvin
 Total                  183.549             46.837            107.594
 Electronic               0.000              0.000              0.000
 Translational            0.889              2.981             41.570
 Rotational               0.889              2.981             31.319
 Vibrational            181.771             40.876             34.704
 Vibration     1          0.596              1.977              4.744
 Vibration     2          0.597              1.971              4.287
 Vibration     3          0.602              1.956              3.639
 Vibration     4          0.608              1.936              3.163
 Vibration     5          0.634              1.852              2.216
 Vibration     6          0.640              1.833              2.091
 Vibration     7          0.661              1.769              1.757
 Vibration     8          0.673              1.732              1.611
 Vibration     9          0.687              1.691              1.470
 Vibration    10          0.730              1.568              1.151
 Vibration    11          0.750              1.511              1.036
 Vibration    12          0.799              1.386              0.831
 Vibration    13          0.808              1.363              0.799
 Vibration    14          0.833              1.303              0.721
 Vibration    15          0.862              1.235              0.642
 Vibration    16          0.895              1.163              0.566
 Vibration    17          0.977              0.995              0.421

                           ! Non-Optimized Parameters !
 Normal termination of Gaussian 16 at Mon Nov  5 01:12:43 2018.
