 Gaussian 16, Revision A.03,
 Gaussian 16:  ES64L-G16RevA.03 25-Dec-2016

 ----------------------------------------------------------------------
 #M062X/6-311++G(2d,2p) opt=ModRedundant freq=noraman SCRF=(Solvent=Wat
 er)
 ----------------------------------------------------------------------

 -----------------------------
 2SO_1_e4_D_PHI.inp_extract_24
 -----------------------------
 Symbolic Z-matrix:
 Charge =  0 Multiplicity = 1

 SCF Done:  E(RM062X) =  -617.496806351     A.U. after   12 cycles
 SCF Done:  E(RM062X) =  -617.498247856     A.U. after   10 cycles
 SCF Done:  E(RM062X) =  -617.498394801     A.U. after    9 cycles
 SCF Done:  E(RM062X) =  -617.498443520     A.U. after   10 cycles
 SCF Done:  E(RM062X) =  -617.498453626     A.U. after    9 cycles
 SCF Done:  E(RM062X) =  -617.498455967     A.U. after    8 cycles
 SCF Done:  E(RM062X) =  -617.498456241     A.U. after    7 cycles
 SCF Done:  E(RM062X) =  -617.498456319     A.U. after    7 cycles
 Optimization completed.
    -- Stationary point found.
 Normal termination of Gaussian 16 at Mon Nov  5 00:14:58 2018.

 ----------------------------------------------------------------------
 #N Geom=AllCheck Guess=TCheck SCRF=Check GenChk RM062X/6-311++G(2d,2p)
  Freq
 ----------------------------------------------------------------------

 Structure from the checkpoint file:  "2SO_1_e4_D_PHI.inp_extract_24.chk"
 -----------------------------
 2SO_1_e4_D_PHI.inp_extract_24
 -----------------------------
 Charge =  0 Multiplicity = 1

                         Standard orientation:
 ---------------------------------------------------------------------
 Center     Atomic      Atomic             Coordinates (Angstroms)
 Number     Number       Type             X           Y           Z
 ---------------------------------------------------------------------
      1          6           0        1.118675    0.071211   -0.045957
      2          6           0       -3.914317    0.602361   -0.062587
      3          6           0       -1.178673   -0.514471   -0.194600
      4          6           0       -2.595566    1.368946   -0.206836
      5          6           0       -3.628167   -0.905200    0.033724
      6          6           0        1.918492    1.137071    0.680685
      7          6           0        1.907885   -1.234070   -0.080888
      8          6           0        3.970130   -0.118983   -0.002754
      9          8           0        3.163271   -1.053863   -0.708698
     10          6           0        3.309266    1.249266    0.055243
     11          8           0       -0.110444   -0.138058    0.638639
     12          6           0       -2.265737   -1.123384    0.684989
     13          8           0       -1.651109    0.589155   -0.936338
     14          1           0        0.921447    0.402361   -1.069916
     15          1           0       -4.567664    0.808805   -0.909238
     16          1           0       -4.425229    0.950597    0.836105
     17          1           0       -0.834686   -1.226291   -0.948676
     18          1           0       -2.723758    2.295710   -0.759888
     19          1           0       -2.177042    1.617676    0.771180
     20          1           0       -3.616700   -1.343719   -0.965197
     21          1           0       -4.409896   -1.412291    0.595852
     22          1           0        1.387483    2.088280    0.644768
     23          1           0        2.005500    0.843718    1.730841
     24          1           0        1.376085   -2.000085   -0.643420
     25          1           0        2.044550   -1.588292    0.948666
     26          1           0        4.148983   -0.493949    1.012385
     27          1           0        4.921475   -0.078861   -0.528685
     28          1           0        3.935769    1.932490    0.628673
     29          1           0        3.230025    1.646391   -0.958961
     30          1           0       -2.234647   -0.638247    1.662821
     31          1           0       -2.047366   -2.178650    0.837761
 ---------------------------------------------------------------------

 SCF Done:  E(RM062X) =  -617.498456319     A.U. after    1 cycles

 The electronic state is 1-A.
 Alpha  occ. eigenvalues --  -19.63475 -19.63199 -19.63037 -10.63690 -10.58662
 Alpha  occ. eigenvalues --  -10.58093 -10.58060 -10.57888 -10.53323 -10.53290
 Alpha  occ. eigenvalues --  -10.53267 -10.53220 -10.52922  -1.20182  -1.16694
 Alpha  occ. eigenvalues --   -1.13783  -0.90985  -0.89831  -0.87051  -0.84320
 Alpha  occ. eigenvalues --   -0.75252  -0.74275  -0.73228  -0.70317  -0.65766
 Alpha  occ. eigenvalues --   -0.62550  -0.60667  -0.59040  -0.58288  -0.56748
 Alpha  occ. eigenvalues --   -0.55441  -0.52939  -0.52454  -0.49677  -0.49232
 Alpha  occ. eigenvalues --   -0.47812  -0.46784  -0.46022  -0.45611  -0.44547
 Alpha  occ. eigenvalues --   -0.44424  -0.43115  -0.40630  -0.40419  -0.39073
 Alpha  occ. eigenvalues --   -0.38467  -0.38179  -0.36288  -0.35618  -0.34114
 Alpha  occ. eigenvalues --   -0.31964
 Alpha virt. eigenvalues --   -0.00090   0.00755   0.00880   0.01001   0.02105
 Alpha virt. eigenvalues --    0.02398   0.02548   0.03635   0.03713   0.04166
 Alpha virt. eigenvalues --    0.04265   0.04647   0.05608   0.05867   0.06833

 Mulliken charges:
               1
     1  C   -0.196171
     2  C   -0.518888
     3  C   -0.310238
     4  C   -0.014595
     5  C   -0.184206
     6  C   -0.194207
     7  C   -0.260539
     8  C   -0.166791
     9  O   -0.329129
    10  C   -0.359876
    11  O   -0.251772
    12  C   -0.253519
    13  O   -0.271665
    14  H    0.266493
    15  H    0.162601
    16  H    0.145521
    17  H    0.250565
    18  H    0.202800
    19  H    0.141346
    20  H    0.153984
    21  H    0.193639
    22  H    0.145545
    23  H    0.205247
    24  H    0.192223
    25  H    0.191225
    26  H    0.137910
    27  H    0.208891
    28  H    0.186700
    29  H    0.162512
    30  H    0.197875
    31  H    0.166515
 Sum of Mulliken charges =  -0.00000

 Dipole moment (field-independent basis, Debye):
    X=             -1.1717    Y=              0.6640    Z=              1.6169  Tot=              2.1043
 Quadrupole moment (field-independent basis, Debye-Ang):
   XX=            -71.7905   YY=            -77.9864   ZZ=            -84.1244
   XY=              5.5798   XZ=              2.6129   YZ=             -0.3899

  Exact polarizability: 179.386   1.370 159.158   0.296  -0.434 147.621
 Approx polarizability: 147.578   0.302 141.722  -0.028   0.272 142.373

                      1                      2                      3
                      A                      A                      A
 Frequencies --     37.8360                44.2266                72.5081
 Red. masses --      3.7080                 3.8065                 3.4760
 Frc consts  --      0.0031                 0.0044                 0.0108
 IR Inten    --      1.4489                 0.5514                 1.5520

                      4                      5                      6
                      A                      A                      A
 Frequencies --    118.6609               181.5356               205.4320
 Red. masses --      3.1100                 3.0027                 1.8278
 Frc consts  --      0.0258                 0.0583                 0.0454
 IR Inten    --      3.8962                 0.4159                 2.2643

                      7                      8                      9
                      A                      A                      A
 Frequencies --    247.1099               269.4650               303.1964
 Red. masses --      2.1441                 3.5341                 2.3821
 Frc consts  --      0.0771                 0.1512                 0.1290
 IR Inten    --      4.3168                 1.7264                 4.4090

                     10                     11                     12
                      A                      A                      A
 Frequencies --    361.6041               385.5084               447.3058
 Red. masses --      3.4648                 2.6069                 3.9070
 Frc consts  --      0.2669                 0.2283                 0.4606
 IR Inten    --     27.8783                 5.1787                 4.4099

                     13                     14                     15
                      A                      A                      A
 Frequencies --    453.1827               470.9267               500.9634
 Red. masses --      2.2137                 3.6457                 3.2339
 Frc consts  --      0.2679                 0.4764                 0.4782
 IR Inten    --      1.1790                 2.5231                 6.9036

                     16                     17                     18
                      A                      A                      A
 Frequencies --    546.0843               590.0854               631.6925
 Red. masses --      3.6572                 2.3560                 1.9616
 Frc consts  --      0.6426                 0.4833                 0.4612
 IR Inten    --      0.2606                12.7304                 6.8913

                     19                     20                     21
                      A                      A                      A
 Frequencies --    669.4770               784.6490               834.0065
 Red. masses --      3.9192                 1.2973                 2.2788
 Frc consts  --      1.0349                 0.4706                 0.9339
 IR Inten    --      5.2244                 5.5363                 1.2903

                     22                     23                     24
                      A                      A                      A
 Frequencies --    843.5588               880.1364               894.1857
 Red. masses --      2.5163                 1.4068                 2.5244
 Frc consts  --      1.0550                 0.6421                 1.1892
 IR Inten    --     10.0812                10.6578                11.7912

                     25                     26                     27
                      A                      A                      A
 Frequencies --    899.6087               919.3011               943.0065
 Red. masses --      2.3493                 2.1555                 2.3035
 Frc consts  --      1.1202                 1.0733                 1.2069
 IR Inten    --     10.4818                34.2991                36.0572

                     28                     29                     30
                      A                      A                      A
 Frequencies --    971.4487               986.7801               996.6453
 Red. masses --      1.7526                 2.2980                 1.5023
 Frc consts  --      0.9745                 1.3184                 0.8792
 IR Inten    --     10.3929                47.5157                 5.4909

                     31                     32                     33
                      A                      A                      A
 Frequencies --   1007.2501              1053.1901              1071.3871
 Red. masses --      1.9738                 1.7233                 2.1964
 Frc consts  --      1.1799                 1.1262                 1.4854
 IR Inten    --      5.6829                10.8967               311.0771

                     34                     35                     36
                      A                      A                      A
 Frequencies --   1077.8855              1087.1219              1114.7696
 Red. masses --      2.7007                 2.4948                 3.9048
 Frc consts  --      1.8487                 1.7371                 2.8590
 IR Inten    --     57.5066                57.2318               285.2083

                     37                     38                     39
                      A                      A                      A
 Frequencies --   1147.4312              1151.1925              1154.5795
 Red. masses --      3.5971                 3.2784                 2.4714
 Frc consts  --      2.7903                 2.5598                 1.9410
 IR Inten    --    192.2753                16.9471                46.3933

                     40                     41                     42
                      A                      A                      A
 Frequencies --   1171.5457              1192.8841              1210.1717
 Red. masses --      2.3416                 2.0807                 1.4059
 Frc consts  --      1.8935                 1.7444                 1.2131
 IR Inten    --     42.2184                33.8244                 4.6697

                     43                     44                     45
                      A                      A                      A
 Frequencies --   1225.8677              1244.0580              1252.2055
 Red. masses --      1.6672                 1.6433                 1.4706
 Frc consts  --      1.4761                 1.4985                 1.3586
 IR Inten    --     28.1996                44.9007                24.8182

                     46                     47                     48
                      A                      A                      A
 Frequencies --   1289.7769              1305.9689              1308.5743
 Red. masses --      1.2010                 1.1760                 1.1846
 Frc consts  --      1.1771                 1.1817                 1.1952
 IR Inten    --      4.3727                14.6477                12.3163

                     49                     50                     51
                      A                      A                      A
 Frequencies --   1330.1753              1340.1957              1348.4610
 Red. masses --      1.2853                 1.2466                 1.3011
 Frc consts  --      1.3399                 1.3192                 1.3939
 IR Inten    --      7.2740                 7.2183                 5.6440

                     52                     53                     54
                      A                      A                      A
 Frequencies --   1352.4380              1366.8179              1373.3652
 Red. masses --      1.2477                 1.4162                 1.4090
 Frc consts  --      1.3446                 1.5589                 1.5657
 IR Inten    --      7.3918                 2.4998                 0.8158

                     55                     56                     57
                      A                      A                      A
 Frequencies --   1383.7217              1398.3433              1403.0572
 Red. masses --      1.4438                 1.4607                 1.2620
 Frc consts  --      1.6288                 1.6828                 1.4638
 IR Inten    --      4.0042                17.8177                 6.1431

                     58                     59                     60
                      A                      A                      A
 Frequencies --   1409.5152              1424.4458              1429.4414
 Red. masses --      1.4508                 1.4947                 1.2829
 Frc consts  --      1.6983                 1.7868                 1.5445
 IR Inten    --     32.3063                20.2121                11.5826

                     61                     62                     63
                      A                      A                      A
 Frequencies --   1439.8282              1480.2892              1488.4573
 Red. masses --      1.4520                 1.0923                 1.0784
 Frc consts  --      1.7735                 1.4103                 1.4076
 IR Inten    --      2.9477                 7.8966                 2.6316

                     64                     65                     66
                      A                      A                      A
 Frequencies --   1492.6257              1495.3738              1502.1748
 Red. masses --      1.0956                 1.1120                 1.0885
 Frc consts  --      1.4382                 1.4650                 1.4472
 IR Inten    --      8.9703                10.7727                 0.5414

                     67                     68                     69
                      A                      A                      A
 Frequencies --   1504.7044              1515.4804              1524.4802
 Red. masses --      1.0982                 1.1021                 1.0864
 Frc consts  --      1.4649                 1.4914                 1.4875
 IR Inten    --      9.3648                10.0810                 4.1702

                     70                     71                     72
                      A                      A                      A
 Frequencies --   3019.6324              3022.5340              3052.7725
 Red. masses --      1.0686                 1.0703                 1.0724
 Frc consts  --      5.7409                 5.7608                 5.8883
 IR Inten    --     32.8500                95.7986                11.9009

                     73                     74                     75
                      A                      A                      A
 Frequencies --   3062.0951              3063.1065              3071.1765
 Red. masses --      1.0727                 1.0721                 1.0632
 Frc consts  --      5.9262                 5.9265                 5.9084
 IR Inten    --     31.7152                56.7954                36.8906

                     76                     77                     78
                      A                      A                      A
 Frequencies --   3072.5361              3076.0181              3078.4988
 Red. masses --      1.0788                 1.0704                 1.0642
 Frc consts  --      6.0003                 5.9675                 5.9422
 IR Inten    --     40.2356                 9.7824                49.8679

                     79                     80                     81
                      A                      A                      A
 Frequencies --   3082.3719              3114.7838              3116.7618
 Red. masses --      1.0632                 1.0984                 1.0994
 Frc consts  --      5.9518                 6.2786                 6.2925
 IR Inten    --     48.8484                44.0729                31.4895

                     82                     83                     84
                      A                      A                      A
 Frequencies --   3121.4810              3124.2512              3131.8878
 Red. masses --      1.1027                 1.0959                 1.1014
 Frc consts  --      6.3302                 6.3024                 6.3652
 IR Inten    --     55.1791                38.8778                43.7384

                     85                     86                     87
                      A                      A                      A
 Frequencies --   3135.1232              3135.3592              3144.8804
 Red. masses --      1.0952                 1.1000                 1.1000
 Frc consts  --      6.3423                 6.3713                 6.4098
 IR Inten    --     41.4081                51.9136                45.7509

 - Thermochemistry -
 -------------------
 Temperature   298.150 Kelvin.  Pressure   1.00000 Atm.
 Atom     1 has atomic number  6 and mass  12.00000

 Molecular mass:   186.12559 amu.
 Principal axes and moments of inertia in atomic units:
                           1         2         3
     Eigenvalues --   813.449924866.396785266.58083
           X            0.99996   0.00850   0.00191
           Y           -0.00850   0.99996  -0.00289
           Z           -0.00193   0.00288   0.99999
 This molecule is an asymmetric top.
 Rotational symmetry number  1.
 Warning -- assumption of classical behavior for rotation
           may cause significant error
 Rotational temperatures (Kelvin)      0.10648     0.01780     0.01645
 Rotational constants (GHZ):           2.21863     0.37086     0.34268
 Zero-point vibrational energy     736807.8 (Joules/Mol)
                                  176.10130 (Kcal/Mol)
 Warning -- explicit consideration of  17 degrees of freedom as
           vibrations may cause significant error
 Vibrational temperatures:     54.44    63.63   104.32   170.73   261.19
          (Kelvin)            295.57   355.54   387.70   436.23   520.27
                              554.66   643.57   652.03   677.56   720.77
                              785.69   849.00   908.86   963.23  1128.93
                             1199.95  1213.69  1266.32  1286.53  1294.34
                             1322.67  1356.78  1397.70  1419.76  1433.95
                             1449.21  1515.31  1541.49  1550.84  1564.13
                             1603.90  1650.90  1656.31  1661.18  1685.59
                             1716.29  1741.17  1763.75  1789.92  1801.64
                             1855.70  1879.00  1882.75  1913.83  1928.24
                             1940.13  1945.86  1966.55  1975.97  1990.87
                             2011.90  2018.69  2027.98  2049.46  2056.65
                             2071.59  2129.81  2141.56  2147.56  2151.51
                             2161.29  2164.93  2180.44  2193.39  4344.58
                             4348.75  4392.26  4405.67  4407.13  4418.74
                             4420.69  4425.70  4429.27  4434.85  4481.48
                             4484.33  4491.11  4495.10  4506.09  4510.74
                             4511.08  4524.78

 Zero-point correction=                           0.280635 (Hartree/Particle)
 Thermal correction to Energy=                    0.292571
 Thermal correction to Enthalpy=                  0.293516
 Thermal correction to Gibbs Free Energy=         0.241519
 Sum of electronic and zero-point Energies=           -617.217821
 Sum of electronic and thermal Energies=              -617.205885
 Sum of electronic and thermal Enthalpies=            -617.204941
 Sum of electronic and thermal Free Energies=         -617.256937

                     E (Thermal)             CV                S
                      KCal/Mol        Cal/Mol-Kelvin    Cal/Mol-Kelvin
 Total                  183.591             46.814            109.436
 Electronic               0.000              0.000              0.000
 Translational            0.889              2.981             41.570
 Rotational               0.889              2.981             31.411
 Vibrational            181.814             40.853             36.455
 Vibration     1          0.594              1.982              5.369
 Vibration     2          0.595              1.980              5.060
 Vibration     3          0.599              1.967              4.084
 Vibration     4          0.609              1.934              3.122
 Vibration     5          0.630              1.865              2.313
 Vibration     6          0.640              1.832              2.084
 Vibration     7          0.661              1.768              1.751
 Vibration     8          0.674              1.729              1.600
 Vibration     9          0.695              1.668              1.399
 Vibration    10          0.736              1.551              1.115
 Vibration    11          0.754              1.501              1.017
 Vibration    12          0.806              1.367              0.804
 Vibration    13          0.812              1.354              0.786
 Vibration    14          0.828              1.315              0.735
 Vibration    15          0.856              1.248              0.656
 Vibration    16          0.901              1.148              0.552
 Vibration    17          0.947              1.053              0.467

 Optimization completed.
    -- Stationary point found.
 Normal termination of Gaussian 16 at Mon Nov  5 01:07:37 2018.
