 Gaussian 16, Revision A.03,
 Gaussian 16:  ES64L-G16RevA.03 25-Dec-2016

 ----------------------------------------------------------------------
 #M062X/6-311++G(2d,2p) opt=ModRedundant freq=noraman SCRF=(Solvent=Wat
 er)
 ----------------------------------------------------------------------

 -----------------------------
 2SO_1_e4_D_PHI.inp_extract_20
 -----------------------------
 Symbolic Z-matrix:
 Charge =  0 Multiplicity = 1

 SCF Done:  E(RM062X) =  -617.491837915     A.U. after   12 cycles
 SCF Done:  E(RM062X) =  -617.493192401     A.U. after   10 cycles
 SCF Done:  E(RM062X) =  -617.493314528     A.U. after    9 cycles
 SCF Done:  E(RM062X) =  -617.493366837     A.U. after    9 cycles
 SCF Done:  E(RM062X) =  -617.493377286     A.U. after    8 cycles
 SCF Done:  E(RM062X) =  -617.493384063     A.U. after    8 cycles
 SCF Done:  E(RM062X) =  -617.493384824     A.U. after    8 cycles
 SCF Done:  E(RM062X) =  -617.493384904     A.U. after    7 cycles
 SCF Done:  E(RM062X) =  -617.493384865     A.U. after    6 cycles
 Optimization completed.
    -- Stationary point found.
 Normal termination of Gaussian 16 at Mon Nov  5 00:12:27 2018.

 ----------------------------------------------------------------------
 #N Geom=AllCheck Guess=TCheck SCRF=Check GenChk RM062X/6-311++G(2d,2p)
  Freq
 ----------------------------------------------------------------------

 Structure from the checkpoint file:  "2SO_1_e4_D_PHI.inp_extract_20.chk"
 -----------------------------
 2SO_1_e4_D_PHI.inp_extract_20
 -----------------------------
 Charge =  0 Multiplicity = 1

                         Standard orientation:
 ---------------------------------------------------------------------
 Center     Atomic      Atomic             Coordinates (Angstroms)
 Number     Number       Type             X           Y           Z
 ---------------------------------------------------------------------
      1          6           0        1.179271    0.196591    0.106691
      2          6           0       -4.068679    0.018903   -0.193053
      3          6           0       -1.164632   -0.199972    0.321781
      4          6           0       -3.012434   -0.642462   -1.082846
      5          6           0       -3.390160    0.667588    1.025927
      6          6           0        1.812792   -1.174092    0.307367
      7          6           0        2.067435    1.052089   -0.785400
      8          6           0        4.015663   -0.079058   -0.115893
      9          8           0        3.366527    1.180429   -0.241503
     10          6           0        3.246166   -1.004985    0.812305
     11          8           0       -0.083247    0.116626   -0.537009
     12          6           0       -1.962097    1.058879    0.656557
     13          8           0       -1.959262   -1.182747   -0.286646
     14          1           0        1.076953    0.704864    1.072749
     15          1           0       -4.803243   -0.717341    0.130320
     16          1           0       -4.597422    0.770488   -0.780751
     17          1           0       -0.777979   -0.662813    1.232212
     18          1           0       -3.424127   -1.474884   -1.647249
     19          1           0       -2.596914    0.072163   -1.796695
     20          1           0       -3.358790   -0.042347    1.854032
     21          1           0       -3.954091    1.532645    1.369096
     22          1           0        1.222729   -1.777350    0.997871
     23          1           0        1.816403   -1.685761   -0.659069
     24          1           0        1.654945    2.054620   -0.879673
     25          1           0        2.115313    0.595243   -1.782090
     26          1           0        4.110799   -0.535662   -1.108653
     27          1           0        5.012846    0.129471    0.265446
     28          1           0        3.751674   -1.969028    0.868668
     29          1           0        3.241109   -0.575750    1.816528
     30          1           0       -1.963274    1.715639   -0.215363
     31          1           0       -1.459033    1.590445    1.463270
 ---------------------------------------------------------------------

 SCF Done:  E(RM062X) =  -617.493384865     A.U. after    1 cycles

 The electronic state is 1-A.
 Alpha  occ. eigenvalues --  -19.63245 -19.63218 -19.63021 -10.63760 -10.58993
 Alpha  occ. eigenvalues --  -10.58187 -10.58108 -10.58050 -10.53346 -10.53280
 Alpha  occ. eigenvalues --  -10.53241 -10.53206 -10.52983  -1.19972  -1.16764
 Alpha  occ. eigenvalues --   -1.13923  -0.90594  -0.89965  -0.87389  -0.84347
 Alpha  occ. eigenvalues --   -0.74853  -0.74547  -0.73263  -0.70667  -0.65973
 Alpha  occ. eigenvalues --   -0.62690  -0.60783  -0.58868  -0.57578  -0.57226
 Alpha  occ. eigenvalues --   -0.55161  -0.53191  -0.51820  -0.50576  -0.49410
 Alpha  occ. eigenvalues --   -0.47943  -0.46694  -0.45934  -0.45891  -0.44669
 Alpha  occ. eigenvalues --   -0.43718  -0.43403  -0.41123  -0.40413  -0.40003
 Alpha  occ. eigenvalues --   -0.38559  -0.37928  -0.36851  -0.34608  -0.33649
 Alpha  occ. eigenvalues --   -0.31836
 Alpha virt. eigenvalues --   -0.00068   0.00759   0.00808   0.01078   0.02147
 Alpha virt. eigenvalues --    0.02331   0.02534   0.03530   0.03733   0.04238
 Alpha virt. eigenvalues --    0.04528   0.04566   0.05544   0.05827   0.06679

 Mulliken charges:
               1
     1  C   -0.129171
     2  C   -0.480341
     3  C   -0.269709
     4  C   -0.069824
     5  C   -0.237644
     6  C   -0.162805
     7  C   -0.274280
     8  C   -0.201089
     9  O   -0.331857
    10  C   -0.370228
    11  O   -0.306374
    12  C   -0.228250
    13  O   -0.277655
    14  H    0.250807
    15  H    0.160511
    16  H    0.146770
    17  H    0.271272
    18  H    0.205592
    19  H    0.157748
    20  H    0.155607
    21  H    0.185710
    22  H    0.154076
    23  H    0.215295
    24  H    0.193696
    25  H    0.191065
    26  H    0.140674
    27  H    0.205804
    28  H    0.180578
    29  H    0.163409
    30  H    0.218329
    31  H    0.142283
 Sum of Mulliken charges =  -0.00000

 Dipole moment (field-independent basis, Debye):
    X=             -1.1625    Y=             -0.1120    Z=              1.4050  Tot=              1.8270
 Quadrupole moment (field-independent basis, Debye-Ang):
   XX=            -73.4739   YY=            -83.9568   ZZ=            -78.3073
   XY=            -10.8724   XZ=              1.4292   YZ=             -0.2263

  Exact polarizability: 180.386  -1.012 152.241   3.455   0.744 153.237
 Approx polarizability: 148.565   0.172 140.680   3.153   0.395 142.263

 ******    1 imaginary frequencies (negative Signs) ******

                      1                      2                      3
                      A                      A                      A
 Frequencies --    -38.7752                48.8823                55.7072
 Red. masses --      4.3595                 3.6773                 3.1242
 Frc consts  --      0.0039                 0.0052                 0.0057
 IR Inten    --      2.1443                 3.5282                 0.4933

                      4                      5                      6
                      A                      A                      A
 Frequencies --    117.8171               179.5073               205.2936
 Red. masses --      3.0087                 2.1840                 2.5431
 Frc consts  --      0.0246                 0.0415                 0.0631
 IR Inten    --      2.4447                 0.9721                 0.8227

                      7                      8                      9
                      A                      A                      A
 Frequencies --    247.6006               262.4265               297.2816
 Red. masses --      2.0354                 2.9188                 3.7615
 Frc consts  --      0.0735                 0.1184                 0.1959
 IR Inten    --      5.6631                 0.1963                 8.2088

                     10                     11                     12
                      A                      A                      A
 Frequencies --    352.3549               404.7245               430.9652
 Red. masses --      2.5040                 2.3618                 3.3132
 Frc consts  --      0.1832                 0.2279                 0.3626
 IR Inten    --      3.2412                10.9660                 4.6291

                     13                     14                     15
                      A                      A                      A
 Frequencies --    459.8324               464.8982               490.4883
 Red. masses --      4.8239                 2.6411                 4.5125
 Frc consts  --      0.6010                 0.3363                 0.6396
 IR Inten    --      2.8831                 3.8063                15.3868

                     16                     17                     18
                      A                      A                      A
 Frequencies --    523.4587               566.6426               629.6082
 Red. masses --      2.7728                 2.4610                 1.9534
 Frc consts  --      0.4476                 0.4656                 0.4562
 IR Inten    --      2.9132                 2.7272                 8.2555

                     19                     20                     21
                      A                      A                      A
 Frequencies --    674.7474               781.3738               828.2280
 Red. masses --      3.4715                 1.2920                 2.2432
 Frc consts  --      0.9312                 0.4648                 0.9066
 IR Inten    --     12.5662                 4.8100                 0.5975

                     22                     23                     24
                      A                      A                      A
 Frequencies --    846.7641               875.4323               894.6087
 Red. masses --      2.4240                 1.4101                 2.4393
 Frc consts  --      1.0240                 0.6367                 1.1502
 IR Inten    --      2.2259                13.4333                10.5089

                     25                     26                     27
                      A                      A                      A
 Frequencies --    899.7457               921.7869               942.5569
 Red. masses --      2.4384                 2.2833                 2.1993
 Frc consts  --      1.1630                 1.1431                 1.1512
 IR Inten    --      2.5007                52.1708                41.4173

                     28                     29                     30
                      A                      A                      A
 Frequencies --    967.0328               988.3310               997.3887
 Red. masses --      1.8414                 2.3473                 1.4995
 Frc consts  --      1.0146                 1.3509                 0.8788
 IR Inten    --      7.0052                24.8370                10.9456

                     31                     32                     33
                      A                      A                      A
 Frequencies --   1008.8670              1056.0693              1070.2257
 Red. masses --      1.8968                 1.7033                 2.5988
 Frc consts  --      1.1374                 1.1193                 1.7538
 IR Inten    --     11.3665                 8.7457                39.4457

                     34                     35                     36
                      A                      A                      A
 Frequencies --   1077.3080              1088.6992              1122.5467
 Red. masses --      2.6254                 2.1394                 4.3286
 Frc consts  --      1.7953                 1.4940                 3.2137
 IR Inten    --    357.6554                47.7420               344.7721

                     37                     38                     39
                      A                      A                      A
 Frequencies --   1149.0047              1151.7806              1160.6839
 Red. masses --      3.4528                 2.8499                 2.5036
 Frc consts  --      2.6858                 2.2275                 1.9872
 IR Inten    --     42.0805                90.7020               102.5288

                     40                     41                     42
                      A                      A                      A
 Frequencies --   1173.8020              1189.0170              1209.8474
 Red. masses --      2.3727                 2.4008                 1.4704
 Frc consts  --      1.9261                 1.9998                 1.2680
 IR Inten    --     22.7324                44.6110                22.7656

                     43                     44                     45
                      A                      A                      A
 Frequencies --   1214.8294              1247.5844              1253.3111
 Red. masses --      1.4588                 1.5210                 1.7132
 Frc consts  --      1.2685                 1.3948                 1.5855
 IR Inten    --     10.5192                17.8936                80.9408

                     46                     47                     48
                      A                      A                      A
 Frequencies --   1289.4453              1303.5493              1308.5740
 Red. masses --      1.2069                 1.1926                 1.1796
 Frc consts  --      1.1823                 1.1940                 1.1901
 IR Inten    --      9.7974                 9.6619                 7.7529

                     49                     50                     51
                      A                      A                      A
 Frequencies --   1330.5939              1340.6071              1349.5796
 Red. masses --      1.2818                 1.2713                 1.2956
 Frc consts  --      1.3371                 1.3462                 1.3904
 IR Inten    --     11.6892                 1.7628                 2.0565

                     52                     53                     54
                      A                      A                      A
 Frequencies --   1354.9927              1366.9128              1372.9075
 Red. masses --      1.2203                 1.3986                 1.4336
 Frc consts  --      1.3201                 1.5397                 1.5920
 IR Inten    --     14.5382                 3.6820                 1.5820

                     55                     56                     57
                      A                      A                      A
 Frequencies --   1383.3707              1398.3019              1401.5465
 Red. masses --      1.4406                 1.5035                 1.2952
 Frc consts  --      1.6243                 1.7320                 1.4990
 IR Inten    --      9.1887                32.4056                 4.5053

                     58                     59                     60
                      A                      A                      A
 Frequencies --   1411.0619              1416.7784              1428.1782
 Red. masses --      1.3962                 1.4123                 1.3703
 Frc consts  --      1.6379                 1.6702                 1.6468
 IR Inten    --     33.4781                20.2565                 1.3084

                     61                     62                     63
                      A                      A                      A
 Frequencies --   1446.5273              1480.7517              1487.4237
 Red. masses --      1.3192                 1.0935                 1.0777
 Frc consts  --      1.6263                 1.4126                 1.4049
 IR Inten    --      7.4842                 7.6080                 2.5892

                     64                     65                     66
                      A                      A                      A
 Frequencies --   1493.7103              1495.1815              1501.3280
 Red. masses --      1.1132                 1.0947                 1.0880
 Frc consts  --      1.4634                 1.4419                 1.4448
 IR Inten    --     11.8809                 8.1405                 0.5815

                     67                     68                     69
                      A                      A                      A
 Frequencies --   1503.4452              1514.2436              1527.2149
 Red. masses --      1.0983                 1.1016                 1.0861
 Frc consts  --      1.4627                 1.4882                 1.4925
 IR Inten    --     10.5278                10.0404                 4.6637

                     70                     71                     72
                      A                      A                      A
 Frequencies --   3016.9757              3020.7570              3031.7405
 Red. masses --      1.0709                 1.0706                 1.0809
 Frc consts  --      5.7431                 5.7560                 5.8533
 IR Inten    --     23.0542                81.7008                62.6488

                     73                     74                     75
                      A                      A                      A
 Frequencies --   3060.6045              3063.6703              3070.0444
 Red. masses --      1.0642                 1.0695                 1.0624
 Frc consts  --      5.8733                 5.9144                 5.8999
 IR Inten    --     38.9658                46.9022                44.4450

                     76                     77                     78
                      A                      A                      A
 Frequencies --   3073.8882              3077.7682              3079.4897
 Red. masses --      1.0692                 1.0769                 1.0670
 Frc consts  --      5.9523                 6.0105                 5.9618
 IR Inten    --     19.9402                 2.4943                48.5269

                     79                     80                     81
                      A                      A                      A
 Frequencies --   3081.8456              3113.6623              3117.8267
 Red. masses --      1.0640                 1.0993                 1.0992
 Frc consts  --      5.9542                 6.2794                 6.2956
 IR Inten    --     51.5103                43.0561                30.3809

                     82                     83                     84
                      A                      A                      A
 Frequencies --   3121.3306              3129.2625              3132.5473
 Red. masses --      1.1022                 1.1011                 1.1019
 Frc consts  --      6.3268                 6.3525                 6.3705
 IR Inten    --     51.5157                45.3774                48.5037

                     85                     86                     87
                      A                      A                      A
 Frequencies --   3133.1357              3135.6047              3146.8439
 Red. masses --      1.0944                 1.0957                 1.0998
 Frc consts  --      6.3294                 6.3473                 6.4165
 IR Inten    --     50.3480                35.2264                47.3593

 - Thermochemistry -
 -------------------
 Temperature   298.150 Kelvin.  Pressure   1.00000 Atm.
 Atom     1 has atomic number  6 and mass  12.00000

 Molecular mass:   186.12559 amu.
 Principal axes and moments of inertia in atomic units:
                           1         2         3
     Eigenvalues --   798.332595143.952895336.39034
           X            0.99990  -0.01379   0.00066
           Y            0.01379   0.99990  -0.00277
           Z           -0.00062   0.00278   1.00000
 This molecule is an asymmetric top.
 Rotational symmetry number  1.
 Warning -- assumption of classical behavior for rotation
           may cause significant error
 Rotational temperatures (Kelvin)      0.10849     0.01684     0.01623
 Rotational constants (GHZ):           2.26064     0.35085     0.33820
    1 imaginary frequencies ignored.
 Zero-point vibrational energy     735956.3 (Joules/Mol)
                                  175.89778 (Kcal/Mol)
 Warning -- explicit consideration of  16 degrees of freedom as
           vibrations may cause significant error
 Vibrational temperatures:     70.33    80.15   169.51   258.27   295.37
          (Kelvin)            356.24   377.57   427.72   506.96   582.31
                              620.06   661.60   668.88   705.70   753.14
                              815.27   905.87   970.81  1124.22  1191.64
                             1218.30  1259.55  1287.14  1294.53  1326.25
                             1356.13  1391.34  1421.99  1435.02  1451.53
                             1519.45  1539.82  1550.01  1566.40  1615.09
                             1653.16  1657.16  1669.97  1688.84  1710.73
                             1740.70  1747.87  1795.00  1803.24  1855.22
                             1875.52  1882.75  1914.43  1928.83  1941.74
                             1949.53  1966.68  1975.31  1990.36  2011.84
                             2016.51  2030.20  2038.43  2054.83  2081.23
                             2130.47  2140.07  2149.12  2151.23  2160.08
                             2163.12  2178.66  2197.32  4340.76  4346.20
                             4362.00  4403.53  4407.94  4417.11  4422.64
                             4428.22  4430.70  4434.09  4479.87  4485.86
                             4490.90  4502.31  4507.04  4507.88  4511.44
                             4527.61

 Zero-point correction=                           0.280311 (Hartree/Particle)
 Thermal correction to Energy=                    0.291474
 Thermal correction to Enthalpy=                  0.292418
 Thermal correction to Gibbs Free Energy=         0.242678
 Sum of electronic and zero-point Energies=           -617.213074
 Sum of electronic and thermal Energies=              -617.201911
 Sum of electronic and thermal Enthalpies=            -617.200967
 Sum of electronic and thermal Free Energies=         -617.250707

                     E (Thermal)             CV                S
                      KCal/Mol        Cal/Mol-Kelvin    Cal/Mol-Kelvin
 Total                  182.903             45.000            104.687
 Electronic               0.000              0.000              0.000
 Translational            0.889              2.981             41.570
 Rotational               0.889              2.981             31.461
 Vibrational            181.125             39.039             31.656
 Vibration     1          0.595              1.978              4.862
 Vibration     2          0.596              1.975              4.604
 Vibration     3          0.608              1.935              3.136
 Vibration     4          0.629              1.867              2.334
 Vibration     5          0.640              1.832              2.085
 Vibration     6          0.661              1.767              1.748
 Vibration     7          0.670              1.742              1.646
 Vibration     8          0.691              1.679              1.432
 Vibration     9          0.729              1.570              1.156
 Vibration    10          0.770              1.460              0.945
 Vibration    11          0.792              1.403              0.856
 Vibration    12          0.818              1.339              0.767
 Vibration    13          0.822              1.328              0.752
 Vibration    14          0.846              1.271              0.682
 Vibration    15          0.878              1.198              0.602
 Vibration    16          0.923              1.103              0.511

 Optimization completed.
    -- Stationary point found.
 Normal termination of Gaussian 16 at Mon Nov  5 01:03:56 2018.
