 Gaussian 16, Revision A.03,
 Gaussian 16:  ES64L-G16RevA.03 25-Dec-2016

 ----------------------------------------------------------------------
 #M062X/6-311++G(2d,2p) opt=ModRedundant freq=noraman SCRF=(Solvent=Wat
 er)
 ----------------------------------------------------------------------

 ----------------------------
 2SO_1_e4_D_PHI.inp_extract_6
 ----------------------------
 Symbolic Z-matrix:
 Charge =  0 Multiplicity = 1

 SCF Done:  E(RM062X) =  -617.487807106     A.U. after   12 cycles
 SCF Done:  E(RM062X) =  -617.489280197     A.U. after   11 cycles
 SCF Done:  E(RM062X) =  -617.489513406     A.U. after   10 cycles
 SCF Done:  E(RM062X) =  -617.489657984     A.U. after    9 cycles
 SCF Done:  E(RM062X) =  -617.489675478     A.U. after    9 cycles
 SCF Done:  E(RM062X) =  -617.489680554     A.U. after    8 cycles
 SCF Done:  E(RM062X) =  -617.489682876     A.U. after    8 cycles
 SCF Done:  E(RM062X) =  -617.489684222     A.U. after    9 cycles
 SCF Done:  E(RM062X) =  -617.489684352     A.U. after    7 cycles
 Optimization completed.
    -- Stationary point found.
 Normal termination of Gaussian 16 at Mon Nov  5 00:20:46 2018.

 ----------------------------------------------------------------------
 #N Geom=AllCheck Guess=TCheck SCRF=Check GenChk RM062X/6-311++G(2d,2p)
  Freq
 ----------------------------------------------------------------------

 Structure from the checkpoint file:  "2SO_1_e4_D_PHI.inp_extract_6.chk"
 ----------------------------
 2SO_1_e4_D_PHI.inp_extract_6
 ----------------------------
 Charge =  0 Multiplicity = 1

                         Standard orientation:
 ---------------------------------------------------------------------
 Center     Atomic      Atomic             Coordinates (Angstroms)
 Number     Number       Type             X           Y           Z
 ---------------------------------------------------------------------
      1          6           0       -0.958801    0.301787   -0.043110
      2          6           0        3.442888   -0.851166    0.773159
      3          6           0        1.349864    0.433385   -0.859961
      4          6           0        1.964734   -1.230452    0.746760
      5          6           0        3.658553    0.492455    0.048309
      6          6           0       -1.956822    1.320346    0.484107
      7          6           0       -1.669818   -0.682170   -0.968405
      8          6           0       -3.727535   -0.407612    0.128663
      9          8           0       -2.738459   -1.332271   -0.303231
     10          6           0       -3.149930    0.598953    1.111038
     11          8           0        0.047084    1.003606   -0.755598
     12          6           0        2.338619    1.253589   -0.044189
     13          8           0        1.382344   -0.929692   -0.521879
     14          1           0       -0.534835   -0.251861    0.797071
     15          1           0        4.034555   -1.634517    0.301796
     16          1           0        3.760733   -0.786251    1.814183
     17          1           0        1.607549    0.485723   -1.919505
     18          1           0        1.820076   -2.298171    0.890725
     19          1           0        1.421978   -0.711983    1.539822
     20          1           0        4.024464    0.311111   -0.963826
     21          1           0        4.413430    1.090637    0.554212
     22          1           0       -1.468923    1.979854    1.201824
     23          1           0       -2.294738    1.934996   -0.355062
     24          1           0       -0.981968   -1.453075   -1.306426
     25          1           0       -2.046386   -0.130686   -1.839852
     26          1           0       -4.138887    0.113455   -0.744761
     27          1           0       -4.520581   -0.997406    0.583526
     28          1           0       -3.922424    1.311738    1.400277
     29          1           0       -2.834297    0.070395    2.013169
     30          1           0        1.921162    1.437166    0.948181
     31          1           0        2.460830    2.221043   -0.527916
 ---------------------------------------------------------------------

 SCF Done:  E(RM062X) =  -617.489684352     A.U. after    1 cycles

 The electronic state is 1-A.
 Alpha  occ. eigenvalues --  -19.63641 -19.62950 -19.62623 -10.63817 -10.58553
 Alpha  occ. eigenvalues --  -10.58376 -10.57950 -10.57478 -10.53379 -10.53243
 Alpha  occ. eigenvalues --  -10.53186 -10.53126 -10.53076  -1.19812  -1.16419
 Alpha  occ. eigenvalues --   -1.13497  -0.90939  -0.89991  -0.87134  -0.84240
 Alpha  occ. eigenvalues --   -0.75037  -0.74500  -0.73573  -0.69837  -0.65691
 Alpha  occ. eigenvalues --   -0.62858  -0.60130  -0.59200  -0.57748  -0.57004
 Alpha  occ. eigenvalues --   -0.54979  -0.52899  -0.51874  -0.50473  -0.49634
 Alpha  occ. eigenvalues --   -0.47411  -0.46618  -0.45685  -0.45458  -0.44421
 Alpha  occ. eigenvalues --   -0.44031  -0.43782  -0.41112  -0.40385  -0.39416
 Alpha  occ. eigenvalues --   -0.39002  -0.37340  -0.36804  -0.34507  -0.34050
 Alpha  occ. eigenvalues --   -0.30989
 Alpha virt. eigenvalues --   -0.00161   0.00694   0.00877   0.01113   0.02173
 Alpha virt. eigenvalues --    0.02424   0.02612   0.03423   0.03589   0.04383
 Alpha virt. eigenvalues --    0.04534   0.04706   0.05587   0.05819   0.06871

 Mulliken charges:
               1
     1  C    0.056423
     2  C   -0.427563
     3  C   -0.514788
     4  C   -0.031198
     5  C   -0.257167
     6  C   -0.319564
     7  C   -0.334695
     8  C   -0.148154
     9  O   -0.309482
    10  C   -0.360269
    11  O   -0.251098
    12  C   -0.116509
    13  O   -0.275481
    14  H    0.231566
    15  H    0.161583
    16  H    0.153397
    17  H    0.238322
    18  H    0.205622
    19  H    0.137623
    20  H    0.157668
    21  H    0.179943
    22  H    0.152754
    23  H    0.206395
    24  H    0.215318
    25  H    0.185035
    26  H    0.137861
    27  H    0.209250
    28  H    0.188684
    29  H    0.158782
    30  H    0.182014
    31  H    0.187727
 Sum of Mulliken charges =   0.00000

 Dipole moment (field-independent basis, Debye):
    X=              1.7694    Y=              1.5451    Z=              2.2712  Tot=              3.2675
 Quadrupole moment (field-independent basis, Debye-Ang):
   XX=            -70.0926   YY=            -85.4086   ZZ=            -78.4699
   XY=             -4.8843   XZ=             -0.0155   YZ=             -1.0355

  Exact polarizability: 176.036  -1.098 156.482  -2.655  -3.362 152.632
 Approx polarizability: 146.277  -1.486 143.143  -1.983  -3.217 142.447

 ******    1 imaginary frequencies (negative Signs) ******

                      1                      2                      3
                      A                      A                      A
 Frequencies --    -69.0277                56.7166                75.5802
 Red. masses --      3.5821                 3.5629                 3.6048
 Frc consts  --      0.0101                 0.0068                 0.0121
 IR Inten    --      2.0959                 2.1938                 1.3789

                      4                      5                      6
                      A                      A                      A
 Frequencies --    119.2209               177.0305               209.8651
 Red. masses --      2.7041                 2.1046                 2.7786
 Frc consts  --      0.0226                 0.0389                 0.0721
 IR Inten    --      0.5940                 0.4124                 4.2986

                      7                      8                      9
                      A                      A                      A
 Frequencies --    241.1917               257.7744               309.0413
 Red. masses --      3.0214                 2.1066                 4.5494
 Frc consts  --      0.1036                 0.0825                 0.2560
 IR Inten    --      0.8788                 2.3065                 8.0058

                     10                     11                     12
                      A                      A                      A
 Frequencies --    342.4449               378.6793               448.2189
 Red. masses --      2.9308                 2.7058                 3.7340
 Frc consts  --      0.2025                 0.2286                 0.4420
 IR Inten    --     18.9619                20.0589                 1.3019

                     13                     14                     15
                      A                      A                      A
 Frequencies --    450.6309               460.1476               500.0629
 Red. masses --      2.8849                 2.5665                 3.3358
 Frc consts  --      0.3452                 0.3202                 0.4915
 IR Inten    --      3.1896                 2.5381                 7.2296

                     16                     17                     18
                      A                      A                      A
 Frequencies --    509.3566               590.3313               621.1977
 Red. masses --      3.0682                 2.1496                 1.9977
 Frc consts  --      0.4690                 0.4414                 0.4542
 IR Inten    --      2.1857                 0.4059                 6.8084

                     19                     20                     21
                      A                      A                      A
 Frequencies --    677.1849               777.4283               830.5297
 Red. masses --      4.4016                 1.3323                 2.2474
 Frc consts  --      1.1893                 0.4744                 0.9133
 IR Inten    --      5.8668                 4.5572                 2.1556

                     22                     23                     24
                      A                      A                      A
 Frequencies --    842.8880               877.9496               887.5977
 Red. masses --      2.4100                 1.4038                 2.7026
 Frc consts  --      1.0088                 0.6375                 1.2545
 IR Inten    --      0.1606                 7.7698                 4.4165

                     25                     26                     27
                      A                      A                      A
 Frequencies --    900.8068               917.4894               945.4320
 Red. masses --      2.2671                 2.3359                 2.4106
 Frc consts  --      1.0839                 1.1585                 1.2695
 IR Inten    --     10.6350                23.7508                31.1888

                     28                     29                     30
                      A                      A                      A
 Frequencies --    959.9999               986.9876               991.9870
 Red. masses --      2.0783                 2.0956                 1.4387
 Frc consts  --      1.1285                 1.2027                 0.8342
 IR Inten    --     52.3206                27.0097                 7.2113

                     31                     32                     33
                      A                      A                      A
 Frequencies --   1004.1630              1047.1472              1057.7798
 Red. masses --      1.8763                 2.2682                 2.1015
 Frc consts  --      1.1147                 1.4653                 1.3854
 IR Inten    --      9.6066                15.8378                25.8207

                     34                     35                     36
                      A                      A                      A
 Frequencies --   1076.1245              1088.6332              1116.6998
 Red. masses --      2.1416                 1.8233                 5.2266
 Frc consts  --      1.4612                 1.2731                 3.8401
 IR Inten    --     34.3855                90.8194               404.1905

                     37                     38                     39
                      A                      A                      A
 Frequencies --   1147.3987              1152.0163              1162.1433
 Red. masses --      2.7908                 2.8576                 2.3677
 Frc consts  --      2.1648                 2.2344                 1.8841
 IR Inten    --     87.6835                53.5235                15.7061

                     40                     41                     42
                      A                      A                      A
 Frequencies --   1173.2636              1192.1868              1211.1010
 Red. masses --      2.8892                 2.2073                 1.4769
 Frc consts  --      2.3433                 1.8484                 1.2763
 IR Inten    --    232.9299                53.9956                 7.3049

                     43                     44                     45
                      A                      A                      A
 Frequencies --   1217.3623              1247.7222              1253.3092
 Red. masses --      1.5608                 1.5717                 1.6896
 Frc consts  --      1.3628                 1.4416                 1.5637
 IR Inten    --     23.7853                41.4770                75.2163

                     46                     47                     48
                      A                      A                      A
 Frequencies --   1284.7590              1302.4076              1308.3724
 Red. masses --      1.2101                 1.1902                 1.1862
 Frc consts  --      1.1768                 1.1895                 1.1964
 IR Inten    --      5.1543                19.5073                11.3150

                     49                     50                     51
                      A                      A                      A
 Frequencies --   1327.9058              1343.3797              1346.8143
 Red. masses --      1.2946                 1.2697                 1.3100
 Frc consts  --      1.3449                 1.3500                 1.4000
 IR Inten    --      7.6188                 4.0352                 3.4364

                     52                     53                     54
                      A                      A                      A
 Frequencies --   1351.6591              1370.3609              1372.5876
 Red. masses --      1.2171                 1.3709                 1.4320
 Frc consts  --      1.3101                 1.5168                 1.5895
 IR Inten    --      7.4852                 2.7796                 3.7356

                     55                     56                     57
                      A                      A                      A
 Frequencies --   1382.8242              1388.5193              1406.6525
 Red. masses --      1.4405                 1.4874                 1.3217
 Frc consts  --      1.6229                 1.6896                 1.5408
 IR Inten    --      1.9355                 3.8754                 9.6620

                     58                     59                     60
                      A                      A                      A
 Frequencies --   1412.9237              1416.3876              1431.2198
 Red. masses --      1.3701                 1.3617                 1.3850
 Frc consts  --      1.6115                 1.6095                 1.6715
 IR Inten    --     31.3032                14.1086                 6.9064

                     61                     62                     63
                      A                      A                      A
 Frequencies --   1436.5377              1481.0112              1485.8649
 Red. masses --      1.3600                 1.0919                 1.0778
 Frc consts  --      1.6536                 1.4110                 1.4021
 IR Inten    --     14.3505                 7.7714                 1.7675

                     64                     65                     66
                      A                      A                      A
 Frequencies --   1493.7221              1495.7466              1500.6483
 Red. masses --      1.0963                 1.1131                 1.0829
 Frc consts  --      1.4412                 1.4672                 1.4368
 IR Inten    --      7.6522                11.8076                 0.5017

                     67                     68                     69
                      A                      A                      A
 Frequencies --   1505.4308              1513.5692              1527.6445
 Red. masses --      1.0972                 1.1010                 1.0867
 Frc consts  --      1.4651                 1.4861                 1.4941
 IR Inten    --     12.3601                 9.3583                 5.2355

                     70                     71                     72
                      A                      A                      A
 Frequencies --   3013.2966              3016.8893              3055.9313
 Red. masses --      1.0701                 1.0705                 1.0653
 Frc consts  --      5.7249                 5.7408                 5.8614
 IR Inten    --     43.0160                97.8010                24.8956

                     73                     74                     75
                      A                      A                      A
 Frequencies --   3061.2128              3068.1686              3072.1953
 Red. masses --      1.0708                 1.0621                 1.0746
 Frc consts  --      5.9121                 5.8911                 5.9756
 IR Inten    --     41.6168                30.9391                26.8098

                     76                     77                     78
                      A                      A                      A
 Frequencies --   3074.5431              3080.9595              3083.7884
 Red. masses --      1.0744                 1.0669                 1.0638
 Frc consts  --      5.9837                 5.9669                 5.9603
 IR Inten    --      4.3145                92.1394                38.6703

                     79                     80                     81
                      A                      A                      A
 Frequencies --   3087.7655              3113.9464              3118.9467
 Red. masses --      1.0811                 1.0981                 1.1029
 Frc consts  --      6.0729                 6.2738                 6.3213
 IR Inten    --     56.6051                42.4690                64.5686

                     82                     83                     84
                      A                      A                      A
 Frequencies --   3119.7329              3131.3305              3133.8266
 Red. masses --      1.0988                 1.0945                 1.1008
 Frc consts  --      6.3011                 6.3230                 6.3697
 IR Inten    --     23.6508                49.9071                44.8936

                     85                     86                     87
                      A                      A                      A
 Frequencies --   3134.6080              3144.8758              3151.5695
 Red. masses --      1.0987                 1.1008                 1.0941
 Frc consts  --      6.3608                 6.4144                 6.4025
 IR Inten    --     45.2937                49.4398                22.0094

 - Thermochemistry -
 -------------------
 Temperature   298.150 Kelvin.  Pressure   1.00000 Atm.
 Atom     1 has atomic number  6 and mass  12.00000

 Molecular mass:   186.12559 amu.
 Principal axes and moments of inertia in atomic units:
                           1         2         3
     Eigenvalues --   954.393454342.838394627.25571
           X            0.99998  -0.00674   0.00085
           Y            0.00674   0.99996  -0.00623
           Z           -0.00080   0.00623   0.99998
 This molecule is an asymmetric top.
 Rotational symmetry number  1.
 Warning -- assumption of classical behavior for rotation
           may cause significant error
 Rotational temperatures (Kelvin)      0.09075     0.01994     0.01872
 Rotational constants (GHZ):           1.89098     0.41557     0.39002
    1 imaginary frequencies ignored.
 Zero-point vibrational energy     735950.8 (Joules/Mol)
                                  175.89645 (Kcal/Mol)
 Warning -- explicit consideration of  16 degrees of freedom as
           vibrations may cause significant error
 Vibrational temperatures:     81.60   108.74   171.53   254.71   301.95
          (Kelvin)            347.02   370.88   444.64   492.70   544.83
                              644.89   648.36   662.05   719.48   732.85
                              849.36   893.76   974.32  1118.55  1194.95
                             1212.73  1263.17  1277.06  1296.06  1320.06
                             1360.27  1381.23  1420.06  1427.25  1444.77
                             1506.61  1521.91  1548.30  1566.30  1606.68
                             1650.85  1657.49  1672.06  1688.06  1715.29
                             1742.50  1751.51  1795.19  1803.23  1848.48
                             1873.87  1882.46  1910.56  1932.82  1937.77
                             1944.74  1971.64  1974.85  1989.58  1997.77
                             2023.86  2032.88  2037.87  2059.21  2066.86
                             2130.84  2137.83  2149.13  2152.05  2159.10
                             2165.98  2177.69  2197.94  4335.46  4340.63
                             4396.80  4404.40  4414.41  4420.20  4423.58
                             4432.81  4436.88  4442.61  4480.27  4487.47
                             4488.60  4505.29  4508.88  4510.00  4524.77
                             4534.41

 Zero-point correction=                           0.280309 (Hartree/Particle)
 Thermal correction to Energy=                    0.291445
 Thermal correction to Enthalpy=                  0.292389
 Thermal correction to Gibbs Free Energy=         0.243087
 Sum of electronic and zero-point Energies=           -617.209376
 Sum of electronic and thermal Energies=              -617.198240
 Sum of electronic and thermal Enthalpies=            -617.197296
 Sum of electronic and thermal Free Energies=         -617.246597

                     E (Thermal)             CV                S
                      KCal/Mol        Cal/Mol-Kelvin    Cal/Mol-Kelvin
 Total                  182.884             45.086            103.764
 Electronic               0.000              0.000              0.000
 Translational            0.889              2.981             41.570
 Rotational               0.889              2.981             31.328
 Vibrational            181.107             39.124             30.865
 Vibration     1          0.596              1.975              4.568
 Vibration     2          0.599              1.965              4.002
 Vibration     3          0.609              1.933              3.113
 Vibration     4          0.628              1.871              2.359
 Vibration     5          0.642              1.826              2.045
 Vibration     6          0.658              1.777              1.794
 Vibration     7          0.667              1.750              1.677
 Vibration     8          0.698              1.657              1.367
 Vibration     9          0.722              1.591              1.201
 Vibration    10          0.749              1.516              1.044
 Vibration    11          0.807              1.365              0.801
 Vibration    12          0.809              1.359              0.794
 Vibration    13          0.818              1.338              0.766
 Vibration    14          0.855              1.250              0.658
 Vibration    15          0.865              1.229              0.635
 Vibration    16          0.948              1.052              0.467

 Optimization completed.
    -- Stationary point found.
 Normal termination of Gaussian 16 at Mon Nov  5 01:16:13 2018.
