 Gaussian 16, Revision A.03,
 Gaussian 16:  ES64L-G16RevA.03 25-Dec-2016

 ----------------------------------------------------------------------
 #M062X/6-311++G(2d,2p) opt=ModRedundant freq=noraman SCRF=(Solvent=Wat
 er)
 ----------------------------------------------------------------------

 -----------------------------
 2SO_1_e4_D_PHI.inp_extract_14
 -----------------------------
 Symbolic Z-matrix:
 Charge =  0 Multiplicity = 1

 SCF Done:  E(RM062X) =  -617.486260851     A.U. after   12 cycles
 SCF Done:  E(RM062X) =  -617.487476999     A.U. after   10 cycles
 SCF Done:  E(RM062X) =  -617.487703993     A.U. after   10 cycles
 SCF Done:  E(RM062X) =  -617.487918497     A.U. after   10 cycles
 SCF Done:  E(RM062X) =  -617.487992569     A.U. after    9 cycles
 SCF Done:  E(RM062X) =  -617.488047756     A.U. after   10 cycles
 SCF Done:  E(RM062X) =  -617.488058891     A.U. after    9 cycles
 SCF Done:  E(RM062X) =  -617.488065123     A.U. after    9 cycles
 SCF Done:  E(RM062X) =  -617.488065601     A.U. after    7 cycles
 Optimization completed.
    -- Stationary point found.
 Normal termination of Gaussian 16 at Mon Nov  5 00:16:29 2018.

 ----------------------------------------------------------------------
 #N Geom=AllCheck Guess=TCheck SCRF=Check GenChk RM062X/6-311++G(2d,2p)
  Freq
 ----------------------------------------------------------------------

 Structure from the checkpoint file:  "2SO_1_e4_D_PHI.inp_extract_14.chk"
 -----------------------------
 2SO_1_e4_D_PHI.inp_extract_14
 -----------------------------
 Charge =  0 Multiplicity = 1

                         Standard orientation:
 ---------------------------------------------------------------------
 Center     Atomic      Atomic             Coordinates (Angstroms)
 Number     Number       Type             X           Y           Z
 ---------------------------------------------------------------------
      1          6           0        1.000143   -0.152309    0.039077
      2          6           0       -3.596630   -0.019134   -0.947664
      3          6           0       -1.312288    0.076035    0.934558
      4          6           0       -2.754386   -1.191202   -0.433306
      5          6           0       -3.069763    1.286014   -0.332024
      6          6           0        1.719558    1.073410    0.589558
      7          6           0        1.970579   -1.327476   -0.019144
      8          6           0        3.838149    0.071438   -0.276677
      9          8           0        3.100124   -1.020034   -0.812055
     10          6           0        2.990644    1.331561   -0.221114
     11          8           0       -0.059585   -0.591327    0.870962
     12          6           0       -1.562053    1.163028   -0.116996
     13          8           0       -2.308940   -0.916599    0.890911
     14          1           0        0.657783    0.039875   -0.979779
     15          1           0       -4.645154   -0.163041   -0.690883
     16          1           0       -3.527374    0.018319   -2.035649
     17          1           0       -1.398266    0.507193    1.933232
     18          1           0       -3.326892   -2.113493   -0.383254
     19          1           0       -1.888526   -1.370433   -1.076653
     20          1           0       -3.554914    1.468686    0.627687
     21          1           0       -3.294076    2.136016   -0.973283
     22          1           0        1.068794    1.946829    0.576570
     23          1           0        1.978411    0.869091    1.632456
     24          1           0        1.485666   -2.192755   -0.466814
     25          1           0        2.280756   -1.584725    1.001287
     26          1           0        4.189902   -0.190766    0.728610
     27          1           0        4.703587    0.200693   -0.922897
     28          1           0        3.569619    2.143209    0.219565
     29          1           0        2.730101    1.627852   -1.239556
     30          1           0       -1.097335    0.912158   -1.069472
     31          1           0       -1.128595    2.100780    0.222667
 ---------------------------------------------------------------------

 SCF Done:  E(RM062X) =  -617.488065601     A.U. after    1 cycles

 The electronic state is 1-A.
 Alpha  occ. eigenvalues --  -19.63182 -19.63037 -19.63030 -10.64040 -10.58934
 Alpha  occ. eigenvalues --  -10.58112 -10.58083 -10.58002 -10.53686 -10.53410
 Alpha  occ. eigenvalues --  -10.53326 -10.53208 -10.52994  -1.19773  -1.16744
 Alpha  occ. eigenvalues --   -1.13594  -0.90420  -0.90311  -0.87502  -0.84453
 Alpha  occ. eigenvalues --   -0.75108  -0.74821  -0.73384  -0.70046  -0.65978
 Alpha  occ. eigenvalues --   -0.62423  -0.60698  -0.59150  -0.57940  -0.57155
 Alpha  occ. eigenvalues --   -0.54664  -0.53045  -0.52318  -0.50833  -0.49603
 Alpha  occ. eigenvalues --   -0.48410  -0.47432  -0.45912  -0.45157  -0.44863
 Alpha  occ. eigenvalues --   -0.44257  -0.41601  -0.41066  -0.40774  -0.39979
 Alpha  occ. eigenvalues --   -0.38822  -0.37534  -0.36084  -0.35038  -0.33416
 Alpha  occ. eigenvalues --   -0.32241
 Alpha virt. eigenvalues --   -0.00163   0.00779   0.00810   0.01073   0.02147
 Alpha virt. eigenvalues --    0.02577   0.02608   0.03472   0.03819   0.04425
 Alpha virt. eigenvalues --    0.04648   0.04704   0.05625   0.06032   0.06853

 Mulliken charges:
               1
     1  C   -0.109611
     2  C   -0.402586
     3  C   -0.148486
     4  C   -0.097910
     5  C   -0.360326
     6  C   -0.202512
     7  C   -0.234295
     8  C   -0.223012
     9  O   -0.320669
    10  C   -0.393971
    11  O   -0.351352
    12  C   -0.292638
    13  O   -0.263715
    14  H    0.257380
    15  H    0.166672
    16  H    0.150831
    17  H    0.264634
    18  H    0.207494
    19  H    0.133484
    20  H    0.174397
    21  H    0.173661
    22  H    0.174172
    23  H    0.219232
    24  H    0.194005
    25  H    0.192622
    26  H    0.144203
    27  H    0.204398
    28  H    0.172338
    29  H    0.169682
    30  H    0.227621
    31  H    0.174258
 Sum of Mulliken charges =  -0.00000

 Dipole moment (field-independent basis, Debye):
    X=             -0.3164    Y=              3.8213    Z=             -1.4085  Tot=              4.0849
 Quadrupole moment (field-independent basis, Debye-Ang):
   XX=            -77.0798   YY=            -80.5749   ZZ=            -82.9852
   XY=              3.4236   XZ=              9.0114   YZ=              2.1574

  Exact polarizability: 177.503   2.920 158.025   1.050   0.894 149.705
 Approx polarizability: 148.199   2.491 141.470  -0.679   0.471 142.839

 ******    1 imaginary frequencies (negative Signs) ******

                      1                      2                      3
                      A                      A                      A
 Frequencies --    -69.8713                58.6089                77.7265
 Red. masses --      3.6192                 3.9266                 3.4587
 Frc consts  --      0.0104                 0.0079                 0.0123
 IR Inten    --      0.5497                 1.6004                 2.9669

                      4                      5                      6
                      A                      A                      A
 Frequencies --     95.4900               199.4816               207.6960
 Red. masses --      3.1398                 2.3505                 2.1975
 Frc consts  --      0.0169                 0.0551                 0.0559
 IR Inten    --      0.6181                 0.8062                 2.5729

                      7                      8                      9
                      A                      A                      A
 Frequencies --    241.8816               262.5061               286.7849
 Red. masses --      2.0233                 2.3774                 4.6725
 Frc consts  --      0.0697                 0.0965                 0.2264
 IR Inten    --      3.8192                 2.6763                 6.6899

                     10                     11                     12
                      A                      A                      A
 Frequencies --    360.7036               376.8901               431.9499
 Red. masses --      2.9823                 2.4578                 2.8240
 Frc consts  --      0.2286                 0.2057                 0.3104
 IR Inten    --     12.6792                 7.9803                 5.6228

                     13                     14                     15
                      A                      A                      A
 Frequencies --    454.3571               477.2042               506.1531
 Red. masses --      3.2412                 2.9707                 2.9729
 Frc consts  --      0.3942                 0.3986                 0.4487
 IR Inten    --      6.9694                 0.4890                 0.3284

                     16                     17                     18
                      A                      A                      A
 Frequencies --    532.5134               591.0983               626.6834
 Red. masses --      4.2865                 2.4110                 2.0437
 Frc consts  --      0.7162                 0.4963                 0.4729
 IR Inten    --      3.7704                13.4358                 7.1311

                     19                     20                     21
                      A                      A                      A
 Frequencies --    662.8446               781.5545               828.4699
 Red. masses --      3.7982                 1.3204                 2.1831
 Frc consts  --      0.9832                 0.4752                 0.8828
 IR Inten    --     19.9917                 3.9486                 1.4509

                     22                     23                     24
                      A                      A                      A
 Frequencies --    838.9257               873.9260               892.4238
 Red. masses --      2.5466                 1.4056                 2.8448
 Frc consts  --      1.0560                 0.6325                 1.3349
 IR Inten    --      9.1444                15.5704                 7.4367

                     25                     26                     27
                      A                      A                      A
 Frequencies --    899.7902               922.1550               942.0599
 Red. masses --      2.4168                 2.2320                 2.1660
 Frc consts  --      1.1528                 1.1183                 1.1326
 IR Inten    --     12.1079                47.8462                41.7956

                     28                     29                     30
                      A                      A                      A
 Frequencies --    954.7299               986.4605              1000.1114
 Red. masses --      2.0785                 2.0941                 1.5277
 Frc consts  --      1.1162                 1.2006                 0.9003
 IR Inten    --     20.4189                23.7183                23.8155

                     31                     32                     33
                      A                      A                      A
 Frequencies --   1008.1964              1047.2147              1058.8007
 Red. masses --      1.9763                 2.7213                 1.8845
 Frc consts  --      1.1836                 1.7583                 1.2447
 IR Inten    --     19.7124                51.6427                36.0417

                     34                     35                     36
                      A                      A                      A
 Frequencies --   1072.9718              1084.7975              1111.2299
 Red. masses --      2.1019                 1.9739                 4.6237
 Frc consts  --      1.4257                 1.3686                 3.3640
 IR Inten    --    142.0768                22.3443               375.4947

                     37                     38                     39
                      A                      A                      A
 Frequencies --   1142.2465              1151.1633              1167.4178
 Red. masses --      2.3344                 2.9360                 2.3957
 Frc consts  --      1.7945                 2.2924                 1.9237
 IR Inten    --     22.1002               122.3162                13.6293

                     40                     41                     42
                      A                      A                      A
 Frequencies --   1174.8163              1193.4020              1209.9451
 Red. masses --      2.8956                 2.9480                 1.4730
 Frc consts  --      2.3547                 2.4737                 1.2705
 IR Inten    --    106.0742               114.7238                15.0028

                     43                     44                     45
                      A                      A                      A
 Frequencies --   1215.1863              1247.4525              1249.2390
 Red. masses --      1.4575                 1.6640                 1.5028
 Frc consts  --      1.2681                 1.5257                 1.3818
 IR Inten    --     33.2173                50.5389                21.3807

                     46                     47                     48
                      A                      A                      A
 Frequencies --   1293.0367              1302.6178              1306.9374
 Red. masses --      1.1974                 1.1872                 1.1893
 Frc consts  --      1.1795                 1.1869                 1.1969
 IR Inten    --      4.2826                17.9189                 8.1905

                     49                     50                     51
                      A                      A                      A
 Frequencies --   1330.2808              1339.2815              1350.6799
 Red. masses --      1.2835                 1.2620                 1.2670
 Frc consts  --      1.3382                 1.3337                 1.3619
 IR Inten    --      8.5362                 3.9813                 1.2983

                     52                     53                     54
                      A                      A                      A
 Frequencies --   1357.5212              1366.5085              1374.4069
 Red. masses --      1.2814                 1.4663                 1.3106
 Frc consts  --      1.3914                 1.6133                 1.4586
 IR Inten    --      6.6907                 5.6552                 1.3910

                     55                     56                     57
                      A                      A                      A
 Frequencies --   1383.5490              1387.3672              1401.1058
 Red. masses --      1.4110                 1.4124                 1.2999
 Frc consts  --      1.5913                 1.6017                 1.5035
 IR Inten    --     15.2723                32.4477                 2.2081

                     58                     59                     60
                      A                      A                      A
 Frequencies --   1412.0083              1414.7096              1427.6998
 Red. masses --      1.3233                 1.4257                 1.4032
 Frc consts  --      1.5544                 1.6811                 1.6851
 IR Inten    --     17.0882                 5.4610                18.3516

                     61                     62                     63
                      A                      A                      A
 Frequencies --   1437.3598              1480.1822              1487.8890
 Red. masses --      1.4012                 1.0923                 1.0805
 Frc consts  --      1.7056                 1.4100                 1.4093
 IR Inten    --     12.7018                 7.6437                 2.8420

                     64                     65                     66
                      A                      A                      A
 Frequencies --   1491.2543              1495.9877              1502.4875
 Red. masses --      1.1016                 1.1039                 1.0848
 Frc consts  --      1.4434                 1.4556                 1.4428
 IR Inten    --     11.1704                 8.1540                 0.7872

                     67                     68                     69
                      A                      A                      A
 Frequencies --   1503.6383              1515.0905              1526.2532
 Red. masses --      1.0995                 1.1014                 1.0859
 Frc consts  --      1.4647                 1.4896                 1.4904
 IR Inten    --      7.4161                 9.4509                 4.7124

                     70                     71                     72
                      A                      A                      A
 Frequencies --   3019.8818              3022.1189              3053.8190
 Red. masses --      1.0695                 1.0695                 1.0704
 Frc consts  --      5.7468                 5.7550                 5.8813
 IR Inten    --     31.1412               100.5004                52.7598

                     73                     74                     75
                      A                      A                      A
 Frequencies --   3057.3431              3068.6715              3073.4613
 Red. masses --      1.0685                 1.0645                 1.0784
 Frc consts  --      5.8845                 5.9062                 6.0018
 IR Inten    --     15.9728                17.4830               101.2277

                     76                     77                     78
                      A                      A                      A
 Frequencies --   3078.6622              3079.9213              3082.0578
 Red. masses --      1.0697                 1.0757                 1.0671
 Frc consts  --      5.9738                 6.0122                 5.9725
 IR Inten    --     53.6656                 5.1649                35.8338

                     79                     80                     81
                      A                      A                      A
 Frequencies --   3105.6779              3119.1646              3120.2143
 Red. masses --      1.0645                 1.0995                 1.0990
 Frc consts  --      6.0495                 6.3025                 6.3042
 IR Inten    --     39.9479                40.1128                24.4065

                     82                     83                     84
                      A                      A                      A
 Frequencies --   3125.6748              3132.0985              3134.0527
 Red. masses --      1.0972                 1.0953                 1.1005
 Frc consts  --      6.3160                 6.3310                 6.3688
 IR Inten    --     38.9741                46.4770                24.0096

                     85                     86                     87
                      A                      A                      A
 Frequencies --   3134.9856              3145.9916              3153.6558
 Red. masses --      1.0962                 1.0981                 1.1029
 Frc consts  --      6.3479                 6.4031                 6.4629
 IR Inten    --     62.7970                60.9888                38.5886

 - Thermochemistry -
 -------------------
 Temperature   298.150 Kelvin.  Pressure   1.00000 Atm.
 Atom     1 has atomic number  6 and mass  12.00000

 Molecular mass:   186.12559 amu.
 Principal axes and moments of inertia in atomic units:
                           1         2         3
     Eigenvalues --   962.959254512.251174858.61499
           X            0.99992   0.00288   0.01259
           Y           -0.00310   0.99985   0.01722
           Z           -0.01254  -0.01725   0.99977
 This molecule is an asymmetric top.
 Rotational symmetry number  1.
 Warning -- assumption of classical behavior for rotation
           may cause significant error
 Rotational temperatures (Kelvin)      0.08995     0.01920     0.01783
 Rotational constants (GHZ):           1.87416     0.39996     0.37145
    1 imaginary frequencies ignored.
 Zero-point vibrational energy     736304.9 (Joules/Mol)
                                  175.98109 (Kcal/Mol)
 Warning -- explicit consideration of  16 degrees of freedom as
           vibrations may cause significant error
 Vibrational temperatures:     84.33   111.83   137.39   287.01   298.83
          (Kelvin)            348.01   377.69   412.62   518.97   542.26
                              621.48   653.72   686.59   728.24   766.17
                              850.46   901.66   953.69  1124.48  1191.98
                             1207.03  1257.38  1284.00  1294.60  1326.78
                             1355.41  1373.64  1419.30  1438.94  1450.57
                             1506.71  1523.38  1543.77  1560.78  1598.81
                             1643.44  1656.27  1679.65  1690.30  1717.04
                             1740.84  1748.38  1794.81  1797.38  1860.39
                             1874.18  1880.39  1913.98  1926.93  1943.33
                             1953.17  1966.10  1977.46  1990.62  1996.11
                             2015.88  2031.57  2035.45  2054.14  2068.04
                             2129.65  2140.74  2145.58  2152.39  2161.74
                             2163.40  2179.88  2195.94  4344.94  4348.15
                             4393.76  4398.83  4415.13  4422.03  4429.51
                             4431.32  4434.39  4468.38  4487.78  4489.29
                             4497.15  4506.39  4509.20  4510.55  4526.38
                             4537.41

 Zero-point correction=                           0.280444 (Hartree/Particle)
 Thermal correction to Energy=                    0.291566
 Thermal correction to Enthalpy=                  0.292510
 Thermal correction to Gibbs Free Energy=         0.243136
 Sum of electronic and zero-point Energies=           -617.207622
 Sum of electronic and thermal Energies=              -617.196500
 Sum of electronic and thermal Enthalpies=            -617.195556
 Sum of electronic and thermal Free Energies=         -617.244929

                     E (Thermal)             CV                S
                      KCal/Mol        Cal/Mol-Kelvin    Cal/Mol-Kelvin
 Total                  182.960             45.021            103.916
 Electronic               0.000              0.000              0.000
 Translational            0.889              2.981             41.570
 Rotational               0.889              2.981             31.424
 Vibrational            181.183             39.059             30.922
 Vibration     1          0.596              1.974              4.503
 Vibration     2          0.599              1.964              3.947
 Vibration     3          0.603              1.952              3.544
 Vibration     4          0.638              1.841              2.138
 Vibration     5          0.641              1.829              2.064
 Vibration     6          0.658              1.776              1.789
 Vibration     7          0.670              1.742              1.645
 Vibration     8          0.684              1.698              1.493
 Vibration     9          0.735              1.553              1.119
 Vibration    10          0.747              1.519              1.052
 Vibration    11          0.793              1.401              0.852
 Vibration    12          0.813              1.351              0.783
 Vibration    13          0.834              1.301              0.718
 Vibration    14          0.861              1.236              0.643
 Vibration    15          0.887              1.178              0.582
 Vibration    16          0.949              1.051              0.465

                           ! Non-Optimized Parameters !
 Normal termination of Gaussian 16 at Mon Nov  5 01:23:58 2018.
