 Gaussian 16, Revision A.03,
 Gaussian 16:  ES64L-G16RevA.03 25-Dec-2016

 ----------------------------------------------------------------------
 #M062X/6-311++G(2d,2p) opt=ModRedundant freq=noraman SCRF=(Solvent=Wat
 er)
 ----------------------------------------------------------------------

 -----------------------------
 2SO_1_e4_D_PHI.inp_extract_10
 -----------------------------
 Symbolic Z-matrix:
 Charge =  0 Multiplicity = 1

 SCF Done:  E(RM062X) =  -617.491150941     A.U. after   12 cycles
 SCF Done:  E(RM062X) =  -617.492529268     A.U. after   11 cycles
 SCF Done:  E(RM062X) =  -617.492785973     A.U. after   10 cycles
 SCF Done:  E(RM062X) =  -617.492893758     A.U. after    9 cycles
 SCF Done:  E(RM062X) =  -617.492905388     A.U. after    9 cycles
 SCF Done:  E(RM062X) =  -617.492908230     A.U. after    8 cycles
 SCF Done:  E(RM062X) =  -617.492908877     A.U. after    8 cycles
 SCF Done:  E(RM062X) =  -617.492909030     A.U. after    7 cycles
 Optimization completed.
    -- Stationary point found.
 Normal termination of Gaussian 16 at Mon Nov  5 00:09:47 2018.

 ----------------------------------------------------------------------
 #N Geom=AllCheck Guess=TCheck SCRF=Check GenChk RM062X/6-311++G(2d,2p)
  Freq
 ----------------------------------------------------------------------

 Structure from the checkpoint file:  "2SO_1_e4_D_PHI.inp_extract_10.chk"
 -----------------------------
 2SO_1_e4_D_PHI.inp_extract_10
 -----------------------------
 Charge =  0 Multiplicity = 1

                         Standard orientation:
 ---------------------------------------------------------------------
 Center     Atomic      Atomic             Coordinates (Angstroms)
 Number     Number       Type             X           Y           Z
 ---------------------------------------------------------------------
      1          6           0        0.932240   -0.056818    0.273166
      2          6           0       -3.476008   -0.164517   -1.006919
      3          6           0       -1.362443   -0.030731    1.032362
      4          6           0       -2.293812   -1.123686   -0.904272
      5          6           0       -3.229321    1.087313   -0.140077
      6          6           0        1.651979    1.283889    0.263540
      7          6           0        1.938064   -1.183888    0.474496
      8          6           0        3.687064    0.048296   -0.494241
      9          8           0        2.943048   -1.163523   -0.520775
     10          6           0        2.792338    1.249369   -0.754603
     11          8           0        0.002608   -0.140709    1.346920
     12          6           0       -1.749372    1.199933    0.225054
     13          8           0       -1.827592   -1.231382    0.439520
     14          1           0        0.433069   -0.224442   -0.684268
     15          1           0       -4.386516   -0.669577   -0.687508
     16          1           0       -3.607017    0.106909   -2.054746
     17          1           0       -1.843291    0.025457    2.010354
     18          1           0       -2.574081   -2.131464   -1.200979
     19          1           0       -1.481966   -0.803275   -1.560844
     20          1           0       -3.806896    1.017075    0.783011
     21          1           0       -3.561870    1.987579   -0.652453
     22          1           0        0.954824    2.093392    0.048870
     23          1           0        2.054674    1.453577    1.266084
     24          1           0        1.437626   -2.148271    0.411434
     25          1           0        2.387407   -1.084241    1.470838
     26          1           0        4.176851    0.148599    0.482111
     27          1           0        4.455732   -0.049227   -1.257758
     28          1           0        3.383454    2.163695   -0.701430
     29          1           0        2.387859    1.176567   -1.766595
     30          1           0       -1.144941    1.287764   -0.678502
     31          1           0       -1.553802    2.079829    0.836036
 ---------------------------------------------------------------------

 SCF Done:  E(RM062X) =  -617.492909030     A.U. after    1 cycles

 The electronic state is 1-A.
 Alpha  occ. eigenvalues --  -19.63307 -19.63156 -19.63073 -10.63876 -10.58848
 Alpha  occ. eigenvalues --  -10.58206 -10.58084 -10.58049 -10.53674 -10.53509
 Alpha  occ. eigenvalues --  -10.53316 -10.53217 -10.53096  -1.19801  -1.16668
 Alpha  occ. eigenvalues --   -1.13682  -0.90731  -0.90345  -0.87464  -0.84449
 Alpha  occ. eigenvalues --   -0.75046  -0.74922  -0.73653  -0.70093  -0.66114
 Alpha  occ. eigenvalues --   -0.62985  -0.60333  -0.59129  -0.57677  -0.56940
 Alpha  occ. eigenvalues --   -0.54484  -0.53312  -0.52010  -0.51393  -0.49818
 Alpha  occ. eigenvalues --   -0.47981  -0.47059  -0.45992  -0.45727  -0.44752
 Alpha  occ. eigenvalues --   -0.44584  -0.41707  -0.41212  -0.40646  -0.40046
 Alpha  occ. eigenvalues --   -0.38543  -0.37981  -0.36779  -0.35040  -0.33479
 Alpha  occ. eigenvalues --   -0.31942
 Alpha virt. eigenvalues --   -0.00205   0.00699   0.00863   0.01113   0.02237
 Alpha virt. eigenvalues --    0.02492   0.02651   0.03271   0.03761   0.04509
 Alpha virt. eigenvalues --    0.04691   0.04919   0.05522   0.05759   0.07204

 Mulliken charges:
               1
     1  C   -0.140886
     2  C   -0.355796
     3  C   -0.287524
     4  C   -0.102131
     5  C   -0.360093
     6  C   -0.199655
     7  C   -0.325245
     8  C   -0.186219
     9  O   -0.301569
    10  C   -0.357905
    11  O   -0.243857
    12  C   -0.162031
    13  O   -0.330824
    14  H    0.244806
    15  H    0.160582
    16  H    0.151839
    17  H    0.259193
    18  H    0.201017
    19  H    0.135539
    20  H    0.164717
    21  H    0.167616
    22  H    0.162947
    23  H    0.213526
    24  H    0.192653
    25  H    0.189922
    26  H    0.145885
    27  H    0.202572
    28  H    0.181042
    29  H    0.164507
    30  H    0.199715
    31  H    0.215660
 Sum of Mulliken charges =  -0.00000

 Dipole moment (field-independent basis, Debye):
    X=             -1.2191    Y=              3.8698    Z=             -1.9708  Tot=              4.5106
 Quadrupole moment (field-independent basis, Debye-Ang):
   XX=            -73.9091   YY=            -82.7128   ZZ=            -81.5321
   XY=              3.5344   XZ=              4.0589   YZ=              0.6773

  Exact polarizability: 174.832   1.950 156.389   0.266   1.697 153.697
 Approx polarizability: 146.560   2.430 140.997  -0.347   1.343 144.788

                      1                      2                      3
                      A                      A                      A
 Frequencies --     46.5355                52.2793                67.2401
 Red. masses --      3.8722                 4.0130                 2.9122
 Frc consts  --      0.0049                 0.0065                 0.0078
 IR Inten    --      1.4212                 2.5813                 0.7613

                      4                      5                      6
                      A                      A                      A
 Frequencies --     96.1799               177.9656               220.2118
 Red. masses --      2.6976                 2.4291                 2.5710
 Frc consts  --      0.0147                 0.0453                 0.0735
 IR Inten    --      0.0931                 0.8186                 1.8042

                      7                      8                      9
                      A                      A                      A
 Frequencies --    246.4420               258.8638               317.4608
 Red. masses --      2.3915                 2.4650                 3.1234
 Frc consts  --      0.0856                 0.0973                 0.1855
 IR Inten    --      2.3193                 4.1675                14.0665

                     10                     11                     12
                      A                      A                      A
 Frequencies --    356.6589               412.2793               434.0341
 Red. masses --      2.7863                 3.1682                 2.7122
 Frc consts  --      0.2088                 0.3173                 0.3010
 IR Inten    --      7.1668                 6.3961                12.8379

                     13                     14                     15
                      A                      A                      A
 Frequencies --    457.4969               464.1631               507.0256
 Red. masses --      3.6132                 3.4547                 5.0730
 Frc consts  --      0.4456                 0.4385                 0.7684
 IR Inten    --      1.6864                 0.6325                 8.5103

                     16                     17                     18
                      A                      A                      A
 Frequencies --    507.1309               587.8637               608.1862
 Red. masses --      2.8741                 2.0111                 1.8280
 Frc consts  --      0.4355                 0.4095                 0.3984
 IR Inten    --      1.8226                 7.5978                11.5635

                     19                     20                     21
                      A                      A                      A
 Frequencies --    683.1716               777.7295               825.1589
 Red. masses --      4.1798                 1.3209                 2.3378
 Frc consts  --      1.1494                 0.4707                 0.9379
 IR Inten    --      8.3076                 4.4694                 8.9451

                     22                     23                     24
                      A                      A                      A
 Frequencies --    840.0943               875.9714               884.1292
 Red. masses --      2.3662                 1.3928                 2.7849
 Frc consts  --      0.9839                 0.6297                 1.2826
 IR Inten    --      6.3025                11.1506                 7.6521

                     25                     26                     27
                      A                      A                      A
 Frequencies --    898.8005               913.8503               943.0164
 Red. masses --      2.3786                 2.2271                 2.2900
 Frc consts  --      1.1321                 1.0958                 1.1998
 IR Inten    --     28.4096                29.9698                54.3000

                     28                     29                     30
                      A                      A                      A
 Frequencies --    964.8594               990.2183               997.3339
 Red. masses --      2.0721                 1.8724                 1.7331
 Frc consts  --      1.1365                 1.0817                 1.0157
 IR Inten    --     23.5762                19.4107                19.5755

                     31                     32                     33
                      A                      A                      A
 Frequencies --   1007.4704              1052.9515              1067.3069
 Red. masses --      1.6816                 1.8480                 2.8128
 Frc consts  --      1.0056                 1.2072                 1.8879
 IR Inten    --      5.3191                16.8771                 1.6567

                     34                     35                     36
                      A                      A                      A
 Frequencies --   1075.6137              1083.6316              1110.5616
 Red. masses --      2.2593                 1.9661                 4.0634
 Frc consts  --      1.5401                 1.3602                 2.9528
 IR Inten    --     39.3378               226.5151               279.0689

                     37                     38                     39
                      A                      A                      A
 Frequencies --   1149.9729              1152.9426              1166.4074
 Red. masses --      2.4881                 2.9426                 2.3164
 Frc consts  --      1.9386                 2.3046                 1.8568
 IR Inten    --     47.8380                70.0857                22.1965

                     40                     41                     42
                      A                      A                      A
 Frequencies --   1172.2434              1195.6063              1211.7788
 Red. masses --      3.1007                 2.5272                 1.5930
 Frc consts  --      2.5104                 2.1285                 1.3782
 IR Inten    --    178.1626               109.1660                12.6125

                     43                     44                     45
                      A                      A                      A
 Frequencies --   1225.5536              1245.1438              1250.7481
 Red. masses --      1.4817                 1.5843                 1.5143
 Frc consts  --      1.3112                 1.4472                 1.3957
 IR Inten    --     13.3642                71.0115                21.5052

                     46                     47                     48
                      A                      A                      A
 Frequencies --   1286.0054              1304.3488              1306.3092
 Red. masses --      1.1987                 1.1819                 1.2197
 Frc consts  --      1.1680                 1.1847                 1.2263
 IR Inten    --      9.8339                22.0682                 9.1496

                     49                     50                     51
                      A                      A                      A
 Frequencies --   1329.5486              1344.0895              1349.9829
 Red. masses --      1.2952                 1.2604                 1.3110
 Frc consts  --      1.3490                 1.3415                 1.4077
 IR Inten    --     10.4408                 2.1448                 6.6883

                     52                     53                     54
                      A                      A                      A
 Frequencies --   1357.0584              1370.2772              1375.1979
 Red. masses --      1.2205                 1.3879                 1.4303
 Frc consts  --      1.3243                 1.5354                 1.5937
 IR Inten    --     10.1930                 3.2881                10.1497

                     55                     56                     57
                      A                      A                      A
 Frequencies --   1381.8326              1389.3359              1404.9119
 Red. masses --      1.4316                 1.4602                 1.2800
 Frc consts  --      1.6106                 1.6606                 1.4886
 IR Inten    --      5.1966                10.7589                 1.7212

                     58                     59                     60
                      A                      A                      A
 Frequencies --   1414.4453              1426.5928              1432.0490
 Red. masses --      1.4005                 1.3644                 1.4500
 Frc consts  --      1.6509                 1.6361                 1.7520
 IR Inten    --     15.2621                22.8509                 4.4184

                     61                     62                     63
                      A                      A                      A
 Frequencies --   1440.8942              1481.7577              1485.6965
 Red. masses --      1.2707                 1.0918                 1.0778
 Frc consts  --      1.5544                 1.4123                 1.4017
 IR Inten    --     17.3551                 6.6766                 1.7824

                     64                     65                     66
                      A                      A                      A
 Frequencies --   1493.5990              1498.1216              1501.4283
 Red. masses --      1.1065                 1.0943                 1.0956
 Frc consts  --      1.4544                 1.4471                 1.4551
 IR Inten    --     18.5432                 1.2929                 1.8612

                     67                     68                     69
                      A                      A                      A
 Frequencies --   1506.3337              1514.6109              1529.1863
 Red. masses --      1.0980                 1.1009                 1.0883
 Frc consts  --      1.4678                 1.4880                 1.4994
 IR Inten    --     11.1672                 9.4292                 5.3404

                     70                     71                     72
                      A                      A                      A
 Frequencies --   3017.1954              3021.2335              3058.1897
 Red. masses --      1.0691                 1.0703                 1.0683
 Frc consts  --      5.7342                 5.7563                 5.8867
 IR Inten    --     46.5888                89.6191                27.1684

                     73                     74                     75
                      A                      A                      A
 Frequencies --   3060.2197              3069.8085              3074.0719
 Red. masses --      1.0694                 1.0628                 1.0670
 Frc consts  --      5.9007                 5.9011                 5.9410
 IR Inten    --     32.6398                24.4793                51.2035

                     76                     77                     78
                      A                      A                      A
 Frequencies --   3078.9248              3083.9204              3084.8203
 Red. masses --      1.0765                 1.0690                 1.0794
 Frc consts  --      6.0128                 5.9901                 6.0521
 IR Inten    --     42.8326                31.5870                19.2372

                     79                     80                     81
                      A                      A                      A
 Frequencies --   3091.4997              3118.3700              3119.0760
 Red. masses --      1.0643                 1.0990                 1.0982
 Frc consts  --      5.9934                 6.2966                 6.2951
 IR Inten    --     68.6838                22.2109                42.4092

                     82                     83                     84
                      A                      A                      A
 Frequencies --   3122.9771              3132.2864              3133.3518
 Red. masses --      1.1006                 1.0946                 1.0993
 Frc consts  --      6.3246                 6.3273                 6.3588
 IR Inten    --     50.5548                47.9315                32.5349

                     85                     86                     87
                      A                      A                      A
 Frequencies --   3135.2010              3136.1487              3142.0355
 Red. masses --      1.0963                 1.1013                 1.1023
 Frc consts  --      6.3490                 6.3819                 6.4116
 IR Inten    --     18.5629                73.2885                53.9048

 - Thermochemistry -
 -------------------
 Temperature   298.150 Kelvin.  Pressure   1.00000 Atm.
 Atom     1 has atomic number  6 and mass  12.00000

 Molecular mass:   186.12559 amu.
 Principal axes and moments of inertia in atomic units:
                           1         2         3
     Eigenvalues --  1052.105864228.880264488.54965
           X            0.99997   0.00349   0.00750
           Y           -0.00355   0.99997   0.00701
           Z           -0.00748  -0.00704   0.99995
 This molecule is an asymmetric top.
 Rotational symmetry number  1.
 Warning -- assumption of classical behavior for rotation
           may cause significant error
 Rotational temperatures (Kelvin)      0.08232     0.02048     0.01930
 Rotational constants (GHZ):           1.71536     0.42677     0.40208
 Zero-point vibrational energy     736799.3 (Joules/Mol)
                                  176.09926 (Kcal/Mol)
 Warning -- explicit consideration of  18 degrees of freedom as
           vibrations may cause significant error
 Vibrational temperatures:     66.95    75.22    96.74   138.38   256.05
          (Kelvin)            316.84   354.58   372.45   456.76   513.15
                              593.18   624.48   658.24   667.83   729.50
                              729.65   845.80   875.04   982.93  1118.98
                             1187.22  1208.71  1260.33  1272.06  1293.17
                             1314.83  1356.79  1388.22  1424.70  1434.94
                             1449.53  1514.96  1535.62  1547.57  1559.10
                             1597.85  1654.55  1658.83  1678.20  1686.60
                             1720.21  1743.48  1763.30  1791.48  1799.55
                             1850.27  1876.67  1879.49  1912.92  1933.85
                             1942.32  1952.50  1971.52  1978.60  1988.15
                             1998.94  2021.35  2035.07  2052.55  2060.40
                             2073.13  2131.92  2137.59  2148.96  2155.46
                             2160.22  2167.28  2179.19  2200.16  4341.07
                             4346.88  4400.05  4402.97  4416.77  4422.90
                             4429.89  4437.07  4438.37  4447.98  4486.64
                             4487.65  4493.27  4506.66  4508.19  4510.85
                             4512.22  4520.69

 Zero-point correction=                           0.280632 (Hartree/Particle)
 Thermal correction to Energy=                    0.292599
 Thermal correction to Enthalpy=                  0.293543
 Thermal correction to Gibbs Free Energy=         0.241653
 Sum of electronic and zero-point Energies=           -617.212277
 Sum of electronic and thermal Energies=              -617.200310
 Sum of electronic and thermal Enthalpies=            -617.199366
 Sum of electronic and thermal Free Energies=         -617.251256

                     E (Thermal)             CV                S
                      KCal/Mol        Cal/Mol-Kelvin    Cal/Mol-Kelvin
 Total                  183.609             46.947            109.212
 Electronic               0.000              0.000              0.000
 Translational            0.889              2.981             41.570
 Rotational               0.889              2.981             31.369
 Vibrational            181.831             40.985             36.274
 Vibration     1          0.595              1.979              4.959
 Vibration     2          0.596              1.977              4.729
 Vibration     3          0.598              1.970              4.233
 Vibration     4          0.603              1.952              3.530
 Vibration     5          0.628              1.869              2.350
 Vibration     6          0.647              1.810              1.957
 Vibration     7          0.661              1.769              1.756
 Vibration     8          0.668              1.748              1.669
 Vibration     9          0.704              1.640              1.323
 Vibration    10          0.732              1.562              1.137
 Vibration    11          0.776              1.444              0.919
 Vibration    12          0.795              1.396              0.846
 Vibration    13          0.816              1.344              0.773
 Vibration    14          0.822              1.330              0.754
 Vibration    15          0.862              1.234              0.641
 Vibration    16          0.862              1.234              0.641
 Vibration    17          0.945              1.058              0.471
 Vibration    18          0.967              1.014              0.436

                           ! Non-Optimized Parameters !
 Normal termination of Gaussian 16 at Mon Nov  5 01:01:37 2018.
