 Gaussian 16, Revision A.03,
 Gaussian 16:  ES64L-G16RevA.03 25-Dec-2016

 ----------------------------------------------------------------------
 #M062X/6-311++G(2d,2p) opt=ModRedundant freq=noraman SCRF=(Solvent=Wat
 er)
 ----------------------------------------------------------------------

 -----------------------------
 2SO_1_e4_D_PHI.inp_extract_16
 -----------------------------
 Symbolic Z-matrix:
 Charge =  0 Multiplicity = 1

 SCF Done:  E(RM062X) =  -617.491076809     A.U. after   12 cycles
 SCF Done:  E(RM062X) =  -617.492632563     A.U. after   10 cycles
 SCF Done:  E(RM062X) =  -617.492850166     A.U. after   10 cycles
 SCF Done:  E(RM062X) =  -617.492920626     A.U. after    9 cycles
 SCF Done:  E(RM062X) =  -617.492931944     A.U. after    8 cycles
 SCF Done:  E(RM062X) =  -617.492933571     A.U. after    8 cycles
 SCF Done:  E(RM062X) =  -617.492934028     A.U. after    8 cycles
 SCF Done:  E(RM062X) =  -617.492934068     A.U. after    6 cycles
 Optimization completed.
    -- Stationary point found.
 Normal termination of Gaussian 16 at Mon Nov  5 00:09:33 2018.

 ----------------------------------------------------------------------
 #N Geom=AllCheck Guess=TCheck SCRF=Check GenChk RM062X/6-311++G(2d,2p)
  Freq
 ----------------------------------------------------------------------

 Structure from the checkpoint file:  "2SO_1_e4_D_PHI.inp_extract_16.chk"
 -----------------------------
 2SO_1_e4_D_PHI.inp_extract_16
 -----------------------------
 Charge =  0 Multiplicity = 1

                         Standard orientation:
 ---------------------------------------------------------------------
 Center     Atomic      Atomic             Coordinates (Angstroms)
 Number     Number       Type             X           Y           Z
 ---------------------------------------------------------------------
      1          6           0        1.052718   -0.162028   -0.081728
      2          6           0       -3.821925    0.012572   -0.662249
      3          6           0       -1.212569    0.124405    0.733774
      4          6           0       -3.023898   -1.156453   -0.078330
      5          6           0       -3.025806    1.313997   -0.473419
      6          6           0        1.719271    0.934376    0.743207
      7          6           0        2.023918   -1.319646   -0.274843
      8          6           0        3.903445    0.077998   -0.117433
      9          8           0        3.214851   -0.887760   -0.902535
     10          6           0        3.052082    1.318268    0.099187
     11          8           0       -0.082908   -0.718710    0.558238
     12          6           0       -1.533425    0.991863   -0.487398
     13          8           0       -2.283682   -0.718531    1.058165
     14          1           0        0.792157    0.228790   -1.068935
     15          1           0       -4.793853    0.088472   -0.176863
     16          1           0       -3.998652   -0.175779   -1.722006
     17          1           0       -1.057049    0.753179    1.614586
     18          1           0       -3.671134   -1.956704    0.270148
     19          1           0       -2.338576   -1.577049   -0.817307
     20          1           0       -3.282097    1.772869    0.482675
     21          1           0       -3.270377    2.035020   -1.250690
     22          1           0        1.070183    1.806325    0.832183
     23          1           0        1.890044    0.544961    1.751006
     24          1           0        1.580036   -2.082241   -0.911767
     25          1           0        2.248625   -1.763104    0.703208
     26          1           0        4.171792   -0.368411    0.847859
     27          1           0        4.818982    0.312263   -0.656122
     28          1           0        3.592072    2.028124    0.725760
     29          1           0        2.874880    1.798538   -0.865571
     30          1           0       -1.291590    0.448513   -1.402836
     31          1           0       -0.924397    1.894152   -0.470885
 ---------------------------------------------------------------------

 SCF Done:  E(RM062X) =  -617.492934068     A.U. after    1 cycles

 The electronic state is 1-A.
 Alpha  occ. eigenvalues --  -19.63304 -19.63209 -19.63153 -10.63970 -10.58844
 Alpha  occ. eigenvalues --  -10.58158 -10.58107 -10.58044 -10.53561 -10.53406
 Alpha  occ. eigenvalues --  -10.53380 -10.53332 -10.53015  -1.20110  -1.16777
 Alpha  occ. eigenvalues --   -1.13832  -0.90339  -0.90300  -0.87455  -0.84511
 Alpha  occ. eigenvalues --   -0.75145  -0.74813  -0.73296  -0.70270  -0.65968
 Alpha  occ. eigenvalues --   -0.62194  -0.61030  -0.59094  -0.57964  -0.57171
 Alpha  occ. eigenvalues --   -0.54709  -0.53074  -0.52554  -0.50675  -0.49371
 Alpha  occ. eigenvalues --   -0.48455  -0.47317  -0.46066  -0.45425  -0.44985
 Alpha  occ. eigenvalues --   -0.44290  -0.42237  -0.41129  -0.40644  -0.39496
 Alpha  occ. eigenvalues --   -0.39038  -0.37721  -0.36662  -0.34850  -0.33404
 Alpha  occ. eigenvalues --   -0.32190
 Alpha virt. eigenvalues --   -0.00129   0.00788   0.00840   0.01058   0.02136
 Alpha virt. eigenvalues --    0.02495   0.02621   0.03673   0.03804   0.04290
 Alpha virt. eigenvalues --    0.04584   0.04656   0.05582   0.06067   0.06825

 Mulliken charges:
               1
     1  C   -0.100990
     2  C   -0.458135
     3  C   -0.284068
     4  C   -0.082003
     5  C   -0.405542
     6  C   -0.199260
     7  C   -0.175456
     8  C   -0.215704
     9  O   -0.324148
    10  C   -0.406000
    11  O   -0.364755
    12  C   -0.167838
    13  O   -0.280033
    14  H    0.276426
    15  H    0.161047
    16  H    0.151767
    17  H    0.276672
    18  H    0.206766
    19  H    0.156089
    20  H    0.165766
    21  H    0.173540
    22  H    0.171183
    23  H    0.226316
    24  H    0.200344
    25  H    0.189969
    26  H    0.143166
    27  H    0.208846
    28  H    0.176128
    29  H    0.162993
    30  H    0.231459
    31  H    0.185455
 Sum of Mulliken charges =  -0.00000

 Dipole moment (field-independent basis, Debye):
    X=             -0.5056    Y=              3.3819    Z=             -1.0525  Tot=              3.5778
 Quadrupole moment (field-independent basis, Debye-Ang):
   XX=            -75.8282   YY=            -79.9226   ZZ=            -83.7241
   XY=              4.0175   XZ=             10.5279   YZ=              1.7020

  Exact polarizability: 179.091   4.034 157.719   1.128   0.540 147.952
 Approx polarizability: 148.385   3.064 141.936  -0.605   0.393 141.672

                      1                      2                      3
                      A                      A                      A
 Frequencies --     48.8292                56.3565                87.5718
 Red. masses --      3.6435                 3.4473                 3.2925
 Frc consts  --      0.0051                 0.0065                 0.0149
 IR Inten    --      1.2009                 2.5880                 0.2084

                      4                      5                      6
                      A                      A                      A
 Frequencies --    116.5417               191.7998               206.2878
 Red. masses --      3.4689                 2.9165                 1.9151
 Frc consts  --      0.0278                 0.0632                 0.0480
 IR Inten    --      2.6290                 2.6734                 0.4693

                      7                      8                      9
                      A                      A                      A
 Frequencies --    248.9146               268.7574               295.9321
 Red. masses --      1.9568                 2.7035                 4.3054
 Frc consts  --      0.0714                 0.1151                 0.2221
 IR Inten    --      5.6747                 0.6740                 6.9250

                     10                     11                     12
                      A                      A                      A
 Frequencies --    371.8677               389.0124               432.3271
 Red. masses --      2.4317                 3.5435                 2.8850
 Frc consts  --      0.1981                 0.3159                 0.3177
 IR Inten    --     14.3973                 9.4250                 5.0885

                     13                     14                     15
                      A                      A                      A
 Frequencies --    458.1227               479.9808               506.6955
 Red. masses --      3.2108                 2.8168                 2.8548
 Frc consts  --      0.3970                 0.3823                 0.4318
 IR Inten    --      4.5116                 0.6382                 0.7932

                     16                     17                     18
                      A                      A                      A
 Frequencies --    533.5599               575.8365               634.6883
 Red. masses --      4.2116                 2.3754                 1.9929
 Frc consts  --      0.7064                 0.4641                 0.4730
 IR Inten    --      5.7175                 8.0301                 6.7255

                     19                     20                     21
                      A                      A                      A
 Frequencies --    675.0148               780.9486               828.6571
 Red. masses --      3.7085                 1.3094                 2.2408
 Frc consts  --      0.9956                 0.4705                 0.9066
 IR Inten    --     18.3803                 3.6015                 0.6189

                     22                     23                     24
                      A                      A                      A
 Frequencies --    843.8307               875.5925               894.1305
 Red. masses --      2.4297                 1.4055                 2.6821
 Frc consts  --      1.0193                 0.6349                 1.2634
 IR Inten    --      4.4738                15.6276                 4.3719

                     25                     26                     27
                      A                      A                      A
 Frequencies --    899.1399               926.4535               942.4547
 Red. masses --      2.4070                 2.2541                 2.1724
 Frc consts  --      1.1465                 1.1399                 1.1369
 IR Inten    --      9.3272                42.1394                40.3211

                     28                     29                     30
                      A                      A                      A
 Frequencies --    968.1333               989.3774              1001.1995
 Red. masses --      1.8984                 2.3083                 1.5014
 Frc consts  --      1.0484                 1.3313                 0.8867
 IR Inten    --      6.8938                25.7501                16.8524

                     31                     32                     33
                      A                      A                      A
 Frequencies --   1008.6800              1057.5682              1062.5079
 Red. masses --      1.9169                 1.7731                 2.8864
 Frc consts  --      1.1491                 1.1685                 1.9199
 IR Inten    --     14.3240                 3.1057                68.5560

                     34                     35                     36
                      A                      A                      A
 Frequencies --   1073.8097              1089.1166              1128.0795
 Red. masses --      2.3107                 1.9843                 4.8465
 Frc consts  --      1.5698                 1.3868                 3.6338
 IR Inten    --    169.5232                14.9126               427.0135

                     37                     38                     39
                      A                      A                      A
 Frequencies --   1149.3610              1151.8756              1166.6366
 Red. masses --      2.7022                 2.9368                 2.4966
 Frc consts  --      2.1032                 2.2958                 2.0020
 IR Inten    --     39.9343               155.8164                21.3654

                     40                     41                     42
                      A                      A                      A
 Frequencies --   1174.0680              1191.2420              1209.3032
 Red. masses --      2.5878                 2.6495                 1.4248
 Frc consts  --      2.1017                 2.2152                 1.2277
 IR Inten    --     42.0580                58.0673                 8.8081

                     43                     44                     45
                      A                      A                      A
 Frequencies --   1211.4758              1247.3240              1255.3781
 Red. masses --      1.4448                 1.6251                 1.6024
 Frc consts  --      1.2494                 1.4896                 1.4879
 IR Inten    --     36.6278                 2.9686                82.2861

                     46                     47                     48
                      A                      A                      A
 Frequencies --   1291.2446              1302.6369              1307.0078
 Red. masses --      1.2046                 1.1880                 1.1651
 Frc consts  --      1.1833                 1.1877                 1.1727
 IR Inten    --      5.5585                 7.4482                11.2611

                     49                     50                     51
                      A                      A                      A
 Frequencies --   1330.8036              1341.9395              1351.0426
 Red. masses --      1.2774                 1.2566                 1.2745
 Frc consts  --      1.3329                 1.3332                 1.3706
 IR Inten    --      8.8533                 1.0116                 2.0881

                     52                     53                     54
                      A                      A                      A
 Frequencies --   1358.5632              1367.5208              1370.2907
 Red. masses --      1.2451                 1.4446                 1.2906
 Frc consts  --      1.3539                 1.5917                 1.4278
 IR Inten    --      6.8010                 3.8299                 1.0287

                     55                     56                     57
                      A                      A                      A
 Frequencies --   1383.8335              1395.1977              1397.3725
 Red. masses --      1.4159                 1.3412                 1.4280
 Frc consts  --      1.5975                 1.5382                 1.6429
 IR Inten    --      6.2935                37.8634                10.3985

                     58                     59                     60
                      A                      A                      A
 Frequencies --   1407.0691              1414.5605              1428.4935
 Red. masses --      1.3673                 1.4147                 1.3976
 Frc consts  --      1.5949                 1.6679                 1.6803
 IR Inten    --     16.3581                 6.2831                19.7654

                     61                     62                     63
                      A                      A                      A
 Frequencies --   1435.5988              1479.0606              1487.9116
 Red. masses --      1.4773                 1.0926                 1.0794
 Frc consts  --      1.7938                 1.4083                 1.4080
 IR Inten    --      8.0909                 8.7679                 2.8515

                     64                     65                     66
                      A                      A                      A
 Frequencies --   1493.9796              1499.3946              1501.8134
 Red. masses --      1.1060                 1.0969                 1.0880
 Frc consts  --      1.4545                 1.4530                 1.4458
 IR Inten    --     10.8152                 5.5094                 0.1376

                     67                     68                     69
                      A                      A                      A
 Frequencies --   1504.1575              1514.7946              1528.0360
 Red. masses --      1.0976                 1.1014                 1.0858
 Frc consts  --      1.4631                 1.4891                 1.4937
 IR Inten    --      9.7517                 8.9705                 3.7457

                     70                     71                     72
                      A                      A                      A
 Frequencies --   3020.0026              3022.6485              3053.9616
 Red. masses --      1.0698                 1.0694                 1.0680
 Frc consts  --      5.7489                 5.7568                 5.8690
 IR Inten    --     33.9145                95.5991                 3.3473

                     73                     74                     75
                      A                      A                      A
 Frequencies --   3060.0747              3066.2769              3067.7110
 Red. masses --      1.0802                 1.0763                 1.0735
 Frc consts  --      5.9597                 5.9620                 5.9523
 IR Inten    --     99.8931                 3.2581                22.2094

                     76                     77                     78
                      A                      A                      A
 Frequencies --   3070.6434              3077.2390              3080.9592
 Red. masses --      1.0633                 1.0652                 1.0648
 Frc consts  --      5.9067                 5.9430                 5.9550
 IR Inten    --     51.8599                16.9134                47.5055

                     79                     80                     81
                      A                      A                      A
 Frequencies --   3084.0561              3111.0359              3120.3278
 Red. masses --      1.0636                 1.0989                 1.0992
 Frc consts  --      5.9605                 6.2666                 6.3055
 IR Inten    --     67.9871                40.4371                29.7456

                     82                     83                     84
                      A                      A                      A
 Frequencies --   3121.0516              3133.0783              3134.1319
 Red. masses --      1.1020                 1.0946                 1.1018
 Frc consts  --      6.3244                 6.3307                 6.3767
 IR Inten    --     51.8267                47.3459                38.6454

                     85                     86                     87
                      A                      A                      A
 Frequencies --   3135.3069              3135.3564              3148.0585
 Red. masses --      1.0964                 1.0997                 1.1002
 Frc consts  --      6.3501                 6.3697                 6.4242
 IR Inten    --     48.6515                36.5807                47.5548

 - Thermochemistry -
 -------------------
 Temperature   298.150 Kelvin.  Pressure   1.00000 Atm.
 Atom     1 has atomic number  6 and mass  12.00000

 Molecular mass:   186.12559 amu.
 Principal axes and moments of inertia in atomic units:
                           1         2         3
     Eigenvalues --   883.097174718.541765029.98059
           X            0.99990   0.00330   0.01344
           Y           -0.00350   0.99988   0.01486
           Z           -0.01339  -0.01491   0.99980
 This molecule is an asymmetric top.
 Rotational symmetry number  1.
 Warning -- assumption of classical behavior for rotation
           may cause significant error
 Rotational temperatures (Kelvin)      0.09808     0.01836     0.01722
 Rotational constants (GHZ):           2.04365     0.38248     0.35880
 Zero-point vibrational energy     737131.0 (Joules/Mol)
                                  176.17854 (Kcal/Mol)
 Warning -- explicit consideration of  17 degrees of freedom as
           vibrations may cause significant error
 Vibrational temperatures:     70.25    81.08   126.00   167.68   275.96
          (Kelvin)            296.80   358.13   386.68   425.78   535.03
                              559.70   622.02   659.14   690.59   729.02
                              767.67   828.50   913.17   971.20  1123.61
                             1192.25  1214.08  1259.78  1286.45  1293.66
                             1332.96  1355.98  1392.93  1423.49  1440.50
                             1451.27  1521.60  1528.71  1544.97  1567.00
                             1623.05  1653.67  1657.29  1678.53  1689.22
                             1713.93  1739.92  1743.04  1794.62  1806.21
                             1857.81  1874.20  1880.49  1914.73  1930.75
                             1943.85  1954.67  1967.56  1971.54  1991.03
                             2007.38  2010.51  2024.46  2035.24  2055.28
                             2065.51  2128.04  2140.77  2149.50  2157.29
                             2160.77  2164.15  2179.45  2198.50  4345.11
                             4348.92  4393.97  4402.76  4411.69  4413.75
                             4417.97  4427.46  4432.81  4437.27  4476.09
                             4489.46  4490.50  4507.80  4509.32  4511.01
                             4511.08  4529.35

 Zero-point correction=                           0.280758 (Hartree/Particle)
 Thermal correction to Energy=                    0.292606
 Thermal correction to Enthalpy=                  0.293550
 Thermal correction to Gibbs Free Energy=         0.242224
 Sum of electronic and zero-point Energies=           -617.212176
 Sum of electronic and thermal Energies=              -617.200328
 Sum of electronic and thermal Enthalpies=            -617.199384
 Sum of electronic and thermal Free Energies=         -617.250710

                     E (Thermal)             CV                S
                      KCal/Mol        Cal/Mol-Kelvin    Cal/Mol-Kelvin
 Total                  183.613             46.799            108.025
 Electronic               0.000              0.000              0.000
 Translational            0.889              2.981             41.570
 Rotational               0.889              2.981             31.417
 Vibrational            181.836             40.838             35.038
 Vibration     1          0.595              1.978              4.864
 Vibration     2          0.596              1.975              4.581
 Vibration     3          0.601              1.958              3.714
 Vibration     4          0.608              1.936              3.157
 Vibration     5          0.634              1.851              2.210
 Vibration     6          0.641              1.831              2.076
 Vibration     7          0.662              1.765              1.738
 Vibration     8          0.673              1.731              1.604
 Vibration     9          0.690              1.681              1.440
 Vibration    10          0.744              1.530              1.072
 Vibration    11          0.757              1.494              1.004
 Vibration    12          0.793              1.400              0.851
 Vibration    13          0.816              1.343              0.772
 Vibration    14          0.836              1.294              0.710
 Vibration    15          0.862              1.235              0.642
 Vibration    16          0.889              1.176              0.579
 Vibration    17          0.932              1.084              0.493

 Optimization completed.
    -- Stationary point found.
 Normal termination of Gaussian 16 at Mon Nov  5 01:01:26 2018.
