 Gaussian 16, Revision A.03,
 Gaussian 16:  ES64L-G16RevA.03 25-Dec-2016

 ----------------------------------------------------------------------
 #M062X/6-311++G(2d,2p) opt=ModRedundant freq=noraman SCRF=(Solvent=Wat
 er)
 ----------------------------------------------------------------------

 ----------------------------
 2SO_1_e4_D_PHI.inp_extract_4
 ----------------------------
 Symbolic Z-matrix:
 Charge =  0 Multiplicity = 1

 SCF Done:  E(RM062X) =  -617.488048762     A.U. after   12 cycles
 SCF Done:  E(RM062X) =  -617.489268248     A.U. after   11 cycles
 SCF Done:  E(RM062X) =  -617.489651289     A.U. after   11 cycles
 SCF Done:  E(RM062X) =  -617.489912036     A.U. after    9 cycles
 SCF Done:  E(RM062X) =  -617.489977668     A.U. after   10 cycles
 SCF Done:  E(RM062X) =  -617.489990307     A.U. after    9 cycles
 SCF Done:  E(RM062X) =  -617.489992333     A.U. after    7 cycles
 SCF Done:  E(RM062X) =  -617.489992651     A.U. after    7 cycles
 Optimization completed.
    -- Stationary point found.
 Normal termination of Gaussian 16 at Mon Nov  5 00:17:20 2018.

 ----------------------------------------------------------------------
 #N Geom=AllCheck Guess=TCheck SCRF=Check GenChk RM062X/6-311++G(2d,2p)
  Freq
 ----------------------------------------------------------------------

 Structure from the checkpoint file:  "2SO_1_e4_D_PHI.inp_extract_4.chk"
 ----------------------------
 2SO_1_e4_D_PHI.inp_extract_4
 ----------------------------
 Charge =  0 Multiplicity = 1

                         Standard orientation:
 ---------------------------------------------------------------------
 Center     Atomic      Atomic             Coordinates (Angstroms)
 Number     Number       Type             X           Y           Z
 ---------------------------------------------------------------------
      1          6           0        1.076408   -0.376182   -0.266023
      2          6           0       -3.551667    1.010407   -0.043464
      3          6           0       -1.322690   -0.879770   -0.339935
      4          6           0       -2.083979    1.375042   -0.248305
      5          6           0       -3.682349   -0.490969    0.283405
      6          6           0        1.289415    0.884057    0.561311
      7          6           0        2.287238   -1.293885   -0.128674
      8          6           0        3.748799    0.485893    0.318137
      9          8           0        3.484081   -0.641657   -0.506256
     10          6           0        2.637423    1.515341    0.206502
     11          8           0       -0.025726   -1.154913    0.174803
     12          6           0       -2.343475   -1.039606    0.772451
     13          8           0       -1.410278    0.360245   -0.995794
     14          1           0        0.961216   -0.109904   -1.319451
     15          1           0       -4.123307    1.253971   -0.937847
     16          1           0       -3.945184    1.620569    0.770116
     17          1           0       -1.514170   -1.619953   -1.123466
     18          1           0       -1.969653    2.293066   -0.819434
     19          1           0       -1.590394    1.516721    0.714764
     20          1           0       -3.973382   -1.039551   -0.613938
     21          1           0       -4.460343   -0.661809    1.024277
     22          1           0        0.482392    1.593423    0.392660
     23          1           0        1.275838    0.602659    1.618446
     24          1           0        2.174783   -2.161690   -0.775435
     25          1           0        2.356771   -1.637367    0.911445
     26          1           0        3.853887    0.154769    1.358735
     27          1           0        4.702762    0.890165   -0.013663
     28          1           0        2.850455    2.358263    0.864273
     29          1           0        2.611602    1.895665   -0.817099
     30          1           0       -1.999696   -0.505487    1.659872
     31          1           0       -2.408915   -2.094879    1.031301
 ---------------------------------------------------------------------

 SCF Done:  E(RM062X) =  -617.489992651     A.U. after    1 cycles

 The electronic state is 1-A.
 Alpha  occ. eigenvalues --  -19.63610 -19.63015 -19.62672 -10.63770 -10.58513
 Alpha  occ. eigenvalues --  -10.58276 -10.57962 -10.57864 -10.53421 -10.53337
 Alpha  occ. eigenvalues --  -10.53162 -10.53109 -10.52871  -1.19770  -1.16575
 Alpha  occ. eigenvalues --   -1.13516  -0.90994  -0.89859  -0.87380  -0.84156
 Alpha  occ. eigenvalues --   -0.75514  -0.74028  -0.73585  -0.69871  -0.65329
 Alpha  occ. eigenvalues --   -0.62791  -0.60296  -0.59396  -0.58211  -0.56441
 Alpha  occ. eigenvalues --   -0.55011  -0.52823  -0.52297  -0.49715  -0.49384
 Alpha  occ. eigenvalues --   -0.48075  -0.46610  -0.46223  -0.45760  -0.44935
 Alpha  occ. eigenvalues --   -0.44459  -0.42373  -0.40765  -0.40462  -0.39429
 Alpha  occ. eigenvalues --   -0.39006  -0.37607  -0.36530  -0.34599  -0.33630
 Alpha  occ. eigenvalues --   -0.31463
 Alpha virt. eigenvalues --   -0.00126   0.00743   0.00850   0.01036   0.02194
 Alpha virt. eigenvalues --    0.02482   0.02597   0.03399   0.03707   0.04189
 Alpha virt. eigenvalues --    0.04735   0.04838   0.05473   0.06021   0.07000

 Mulliken charges:
               1
     1  C   -0.189394
     2  C   -0.447885
     3  C   -0.438879
     4  C   -0.048498
     5  C   -0.273539
     6  C   -0.106885
     7  C   -0.249416
     8  C   -0.245046
     9  O   -0.340356
    10  C   -0.355379
    11  O   -0.242404
    12  C   -0.103958
    13  O   -0.291020
    14  H    0.256948
    15  H    0.160723
    16  H    0.151971
    17  H    0.232153
    18  H    0.228490
    19  H    0.133206
    20  H    0.156334
    21  H    0.189466
    22  H    0.143517
    23  H    0.231312
    24  H    0.198834
    25  H    0.182867
    26  H    0.141414
    27  H    0.207831
    28  H    0.170554
    29  H    0.170726
    30  H    0.187842
    31  H    0.188467
 Sum of Mulliken charges =  -0.00000

 Dipole moment (field-independent basis, Debye):
    X=             -2.7739    Y=              2.2602    Z=              2.0187  Tot=              4.1084
 Quadrupole moment (field-independent basis, Debye-Ang):
   XX=            -78.1251   YY=            -77.7213   ZZ=            -82.0405
   XY=              4.6441   XZ=              2.7826   YZ=              1.3640

  Exact polarizability: 175.865   2.093 162.895   0.755  -0.530 147.660
 Approx polarizability: 145.804   1.459 145.316   0.294  -0.286 141.464

 ******    1 imaginary frequencies (negative Signs) ******

                      1                      2                      3
                      A                      A                      A
 Frequencies --    -64.8850                54.7707                97.8456
 Red. masses --      3.2929                 3.9192                 3.7001
 Frc consts  --      0.0082                 0.0069                 0.0209
 IR Inten    --      3.6705                 0.5055                 0.6628

                      4                      5                      6
                      A                      A                      A
 Frequencies --    106.0166               173.8578               188.9176
 Red. masses --      3.2663                 2.5715                 2.0099
 Frc consts  --      0.0216                 0.0458                 0.0423
 IR Inten    --      2.3703                 1.9162                 1.2660

                      7                      8                      9
                      A                      A                      A
 Frequencies --    242.5119               264.8303               279.3378
 Red. masses --      1.9592                 4.7092                 3.0588
 Frc consts  --      0.0679                 0.1946                 0.1406
 IR Inten    --      4.7140                 0.0146                 8.5247

                     10                     11                     12
                      A                      A                      A
 Frequencies --    356.3436               377.9025               433.1471
 Red. masses --      3.0894                 2.4587                 3.5264
 Frc consts  --      0.2311                 0.2069                 0.3898
 IR Inten    --      8.4308                22.1966                 3.7789

                     13                     14                     15
                      A                      A                      A
 Frequencies --    452.4520               473.3377               499.5464
 Red. masses --      2.5820                 3.0102                 2.8811
 Frc consts  --      0.3114                 0.3974                 0.4236
 IR Inten    --      2.8009                 1.0536                 5.5376

                     16                     17                     18
                      A                      A                      A
 Frequencies --    518.5608               594.7060               623.1808
 Red. masses --      3.4433                 2.1179                 2.1278
 Frc consts  --      0.5455                 0.4413                 0.4869
 IR Inten    --      1.5963                 9.6283                 6.4502

                     19                     20                     21
                      A                      A                      A
 Frequencies --    655.9660               781.4010               827.3265
 Red. masses --      4.4147                 1.3337                 2.1558
 Frc consts  --      1.1192                 0.4798                 0.8694
 IR Inten    --      9.9301                 4.9651                 0.0536

                     22                     23                     24
                      A                      A                      A
 Frequencies --    840.2299               875.5482               889.4773
 Red. masses --      2.6065                 1.4180                 2.6515
 Frc consts  --      1.0842                 0.6405                 1.2360
 IR Inten    --      4.5909                12.5581                 4.9540

                     25                     26                     27
                      A                      A                      A
 Frequencies --    899.1847               920.4141               942.6124
 Red. masses --      2.3959                 2.2216                 2.2661
 Frc consts  --      1.1413                 1.1089                 1.1863
 IR Inten    --      8.4187                33.5762                51.9993

                     28                     29                     30
                      A                      A                      A
 Frequencies --    961.5174               988.1196               997.1717
 Red. masses --      2.1085                 2.0702                 1.5023
 Frc consts  --      1.1485                 1.1909                 0.8801
 IR Inten    --     25.7909                15.4392                 5.0885

                     31                     32                     33
                      A                      A                      A
 Frequencies --   1004.3441              1054.8419              1064.7502
 Red. masses --      1.8593                 2.0304                 2.3188
 Frc consts  --      1.1050                 1.3311                 1.5488
 IR Inten    --      5.5363                 6.4741                55.6649

                     34                     35                     36
                      A                      A                      A
 Frequencies --   1077.5476              1089.2215              1117.8382
 Red. masses --      2.0955                 2.0554                 5.1018
 Frc consts  --      1.4336                 1.4367                 3.7561
 IR Inten    --     46.9228                56.6045               377.2104

                     37                     38                     39
                      A                      A                      A
 Frequencies --   1149.3810              1156.8713              1161.7058
 Red. masses --      2.6654                 2.9334                 2.5828
 Frc consts  --      2.0746                 2.3131                 2.0536
 IR Inten    --     19.9756               199.5577                61.7939

                     40                     41                     42
                      A                      A                      A
 Frequencies --   1177.3916              1189.6794              1210.1850
 Red. masses --      2.6022                 2.4119                 1.4759
 Frc consts  --      2.1254                 2.0113                 1.2735
 IR Inten    --    157.4812                36.6035                20.6852

                     43                     44                     45
                      A                      A                      A
 Frequencies --   1212.1425              1246.1195              1252.1583
 Red. masses --      1.4180                 1.4878                 1.7980
 Frc consts  --      1.2276                 1.3612                 1.6609
 IR Inten    --      9.3638                21.4224                90.3008

                     46                     47                     48
                      A                      A                      A
 Frequencies --   1283.6629              1301.5303              1307.9997
 Red. masses --      1.2080                 1.1756                 1.1952
 Frc consts  --      1.1728                 1.1733                 1.2048
 IR Inten    --      2.2738                15.2480                10.4566

                     49                     50                     51
                      A                      A                      A
 Frequencies --   1329.4478              1340.0150              1345.2193
 Red. masses --      1.3150                 1.2141                 1.2909
 Frc consts  --      1.3694                 1.2845                 1.3764
 IR Inten    --      7.0437                 4.4604                 2.1189

                     52                     53                     54
                      A                      A                      A
 Frequencies --   1349.7504              1369.4980              1372.3347
 Red. masses --      1.2907                 1.3593                 1.4504
 Frc consts  --      1.3854                 1.5021                 1.6094
 IR Inten    --      9.2422                 1.6808                 5.0427

                     55                     56                     57
                      A                      A                      A
 Frequencies --   1382.7042              1394.1242              1406.4146
 Red. masses --      1.4339                 1.4364                 1.4243
 Frc consts  --      1.6152                 1.6449                 1.6598
 IR Inten    --      5.8849                19.8824                37.4626

                     58                     59                     60
                      A                      A                      A
 Frequencies --   1414.0241              1420.6436              1435.3267
 Red. masses --      1.2234                 1.4067                 1.4768
 Frc consts  --      1.4412                 1.6727                 1.7926
 IR Inten    --      2.1063                 3.9864                 6.7974

                     61                     62                     63
                      A                      A                      A
 Frequencies --   1443.6639              1479.3093              1486.7891
 Red. masses --      1.3284                 1.0896                 1.0780
 Frc consts  --      1.6313                 1.4048                 1.4040
 IR Inten    --     25.3507                 7.5724                 2.5298

                     64                     65                     66
                      A                      A                      A
 Frequencies --   1493.4536              1495.3349              1501.5456
 Red. masses --      1.1108                 1.0984                 1.0853
 Frc consts  --      1.4598                 1.4470                 1.4417
 IR Inten    --     11.5633                 8.9675                 0.5714

                     67                     68                     69
                      A                      A                      A
 Frequencies --   1505.1399              1514.3845              1528.8759
 Red. masses --      1.0992                 1.1017                 1.0858
 Frc consts  --      1.4672                 1.4886                 1.4953
 IR Inten    --     13.2072                 8.2914                 4.2532

                     70                     71                     72
                      A                      A                      A
 Frequencies --   3016.5620              3019.3700              3034.0989
 Red. masses --      1.0693                 1.0704                 1.0846
 Frc consts  --      5.7328                 5.7493                 5.8827
 IR Inten    --     34.9667               104.2552               101.5127

                     73                     74                     75
                      A                      A                      A
 Frequencies --   3056.3818              3068.5131              3069.6462
 Red. masses --      1.0711                 1.0639                 1.0691
 Frc consts  --      5.8953                 5.9022                 5.9352
 IR Inten    --      7.5600                23.4658                24.9951

                     76                     77                     78
                      A                      A                      A
 Frequencies --   3074.8926              3075.4674              3083.0679
 Red. masses --      1.0729                 1.0705                 1.0646
 Frc consts  --      5.9768                 5.9656                 5.9619
 IR Inten    --     42.2570                51.0424                35.8667

                     79                     80                     81
                      A                      A                      A
 Frequencies --   3086.8484              3116.8840              3119.8048
 Red. masses --      1.0631                 1.1012                 1.0988
 Frc consts  --      5.9681                 6.3031                 6.3013
 IR Inten    --     57.5491                50.3810                25.4440

                     82                     83                     84
                      A                      A                      A
 Frequencies --   3131.1056              3134.0271              3134.9016
 Red. masses --      1.0942                 1.0953                 1.0995
 Frc consts  --      6.3205                 6.3388                 6.3666
 IR Inten    --     52.6750                49.6335                28.2417

                     85                     86                     87
                      A                      A                      A
 Frequencies --   3136.3259              3144.0202              3151.0329
 Red. masses --      1.1011                 1.1001                 1.0965
 Frc consts  --      6.3817                 6.4072                 6.4144
 IR Inten    --     50.5660                67.8753                 8.3454

 - Thermochemistry -
 -------------------
 Temperature   298.150 Kelvin.  Pressure   1.00000 Atm.
 Atom     1 has atomic number  6 and mass  12.00000

 Molecular mass:   186.12559 amu.
 Principal axes and moments of inertia in atomic units:
                           1         2         3
     Eigenvalues --   886.729404415.184924904.08732
           X            0.99998   0.00632   0.00173
           Y           -0.00633   0.99996   0.00562
           Z           -0.00169  -0.00563   0.99998
 This molecule is an asymmetric top.
 Rotational symmetry number  1.
 Warning -- assumption of classical behavior for rotation
           may cause significant error
 Rotational temperatures (Kelvin)      0.09768     0.01962     0.01766
 Rotational constants (GHZ):           2.03528     0.40876     0.36801
    1 imaginary frequencies ignored.
 Zero-point vibrational energy     735910.1 (Joules/Mol)
                                  175.88673 (Kcal/Mol)
 Warning -- explicit consideration of  16 degrees of freedom as
           vibrations may cause significant error
 Vibrational temperatures:     78.80   140.78   152.53   250.14   271.81
          (Kelvin)            348.92   381.03   401.90   512.70   543.72
                              623.20   650.98   681.03   718.74   746.09
                              855.65   896.62   943.79  1124.26  1190.34
                             1208.90  1259.72  1279.76  1293.73  1324.27
                             1356.21  1383.41  1421.68  1434.71  1445.03
                             1517.68  1531.94  1550.35  1567.15  1608.32
                             1653.70  1664.48  1671.44  1694.00  1711.68
                             1741.19  1744.00  1792.89  1801.58  1846.90
                             1872.61  1881.92  1912.78  1927.98  1935.47
                             1941.99  1970.40  1974.48  1989.40  2005.83
                             2023.52  2034.47  2043.99  2065.12  2077.11
                             2128.40  2139.16  2148.75  2151.45  2160.39
                             2165.56  2178.86  2199.71  4340.16  4344.20
                             4365.39  4397.45  4414.91  4416.54  4424.08
                             4424.91  4435.85  4441.29  4484.50  4488.70
                             4504.96  4509.17  4510.42  4512.47  4523.54
                             4533.63

 Zero-point correction=                           0.280293 (Hartree/Particle)
 Thermal correction to Energy=                    0.291462
 Thermal correction to Enthalpy=                  0.292406
 Thermal correction to Gibbs Free Energy=         0.243072
 Sum of electronic and zero-point Energies=           -617.209699
 Sum of electronic and thermal Energies=              -617.198531
 Sum of electronic and thermal Enthalpies=            -617.197587
 Sum of electronic and thermal Free Energies=         -617.246920

                     E (Thermal)             CV                S
                      KCal/Mol        Cal/Mol-Kelvin    Cal/Mol-Kelvin
 Total                  182.895             45.115            103.831
 Electronic               0.000              0.000              0.000
 Translational            0.889              2.981             41.570
 Rotational               0.889              2.981             31.330
 Vibrational            181.117             39.153             30.931
 Vibration     1          0.596              1.976              4.637
 Vibration     2          0.603              1.951              3.497
 Vibration     3          0.605              1.944              3.341
 Vibration     4          0.627              1.875              2.393
 Vibration     5          0.633              1.855              2.238
 Vibration     6          0.659              1.775              1.784
 Vibration     7          0.671              1.737              1.630
 Vibration     8          0.680              1.712              1.538
 Vibration     9          0.732              1.562              1.138
 Vibration    10          0.748              1.517              1.048
 Vibration    11          0.794              1.398              0.848
 Vibration    12          0.811              1.355              0.788
 Vibration    13          0.830              1.309              0.728
 Vibration    14          0.855              1.251              0.659
 Vibration    15          0.874              1.209              0.613
 Vibration    16          0.952              1.043              0.459

                           ! Non-Optimized Parameters !
 Normal termination of Gaussian 16 at Mon Nov  5 01:24:51 2018.
