 Gaussian 16, Revision A.03,
 Gaussian 16:  ES64L-G16RevA.03 25-Dec-2016

 ----------------------------------------------------------------------
 #M062X/6-311++G(2d,2p) opt=ModRedundant freq=noraman SCRF=(Solvent=Wat
 er)
 ----------------------------------------------------------------------

 ----------------------------
 2SO_1_e4_D_PHI.inp_extract_8
 ----------------------------
 Symbolic Z-matrix:
 Charge =  0 Multiplicity = 1

 SCF Done:  E(RM062X) =  -617.490979284     A.U. after   12 cycles
 SCF Done:  E(RM062X) =  -617.492500599     A.U. after   11 cycles
 SCF Done:  E(RM062X) =  -617.492757674     A.U. after   11 cycles
 SCF Done:  E(RM062X) =  -617.492858866     A.U. after    9 cycles
 SCF Done:  E(RM062X) =  -617.492875110     A.U. after    9 cycles
 SCF Done:  E(RM062X) =  -617.492884943     A.U. after    9 cycles
 SCF Done:  E(RM062X) =  -617.492888788     A.U. after    9 cycles
 SCF Done:  E(RM062X) =  -617.492895939     A.U. after    9 cycles
 SCF Done:  E(RM062X) =  -617.492901921     A.U. after    9 cycles
 SCF Done:  E(RM062X) =  -617.492903770     A.U. after    8 cycles
 SCF Done:  E(RM062X) =  -617.492904676     A.U. after    8 cycles
 SCF Done:  E(RM062X) =  -617.492904819     A.U. after    7 cycles
 Optimization completed.
    -- Stationary point found.
 Normal termination of Gaussian 16 at Mon Nov  5 00:35:09 2018.

 ----------------------------------------------------------------------
 #N Geom=AllCheck Guess=TCheck SCRF=Check GenChk RM062X/6-311++G(2d,2p)
  Freq
 ----------------------------------------------------------------------

 Structure from the checkpoint file:  "2SO_1_e4_D_PHI.inp_extract_8.chk"
 ----------------------------
 2SO_1_e4_D_PHI.inp_extract_8
 ----------------------------
 Charge =  0 Multiplicity = 1

                         Standard orientation:
 ---------------------------------------------------------------------
 Center     Atomic      Atomic             Coordinates (Angstroms)
 Number     Number       Type             X           Y           Z
 ---------------------------------------------------------------------
      1          6           0        0.918561    0.310728    0.163275
      2          6           0       -3.397650   -0.796851   -0.780347
      3          6           0       -1.369137    0.466257    0.925292
      4          6           0       -1.997004   -1.345697   -0.537708
      5          6           0       -3.468420    0.695193   -0.390402
      6          6           0        1.937036    1.384610   -0.185523
      7          6           0        1.620740   -0.885904    0.799139
      8          6           0        3.640396   -0.437349   -0.314364
      9          8           0        2.629154   -1.400822   -0.051952
     10          6           0        3.067730    0.781875   -1.018807
     11          8           0       -0.020006    0.857950    1.079606
     12          6           0       -2.067298    1.262168   -0.167414
     13          8           0       -1.485904   -0.926005    0.726397
     14          1           0        0.421228   -0.020710   -0.751695
     15          1           0       -4.117445   -1.372744   -0.200335
     16          1           0       -3.643140   -0.939251   -1.832851
     17          1           0       -1.824249    0.688380    1.891723
     18          1           0       -1.996532   -2.432489   -0.504726
     19          1           0       -1.321301   -1.041267   -1.339778
     20          1           0       -4.034516    0.807072    0.535605
     21          1           0       -3.992341    1.272016   -1.149682
     22          1           0        1.445162    2.202368   -0.712801
     23          1           0        2.338932    1.787183    0.748684
     24          1           0        0.911542   -1.687798    0.985519
     25          1           0        2.058003   -0.565841    1.753805
     26          1           0        4.108956   -0.139903    0.631930
     27          1           0        4.387687   -0.936774   -0.927363
     28          1           0        3.857972    1.514444   -1.183763
     29          1           0        2.689531    0.478174   -1.997384
     30          1           0       -1.479666    1.225042   -1.087302
     31          1           0       -2.105498    2.302945    0.149159
 ---------------------------------------------------------------------

 SCF Done:  E(RM062X) =  -617.492904819     A.U. after    1 cycles

 The electronic state is 1-A.
 Alpha  occ. eigenvalues --  -19.63336 -19.63033 -19.62989 -10.63837 -10.58678
 Alpha  occ. eigenvalues --  -10.58329 -10.57978 -10.57583 -10.53428 -10.53369
 Alpha  occ. eigenvalues --  -10.53221 -10.53147 -10.53118  -1.19880  -1.16459
 Alpha  occ. eigenvalues --   -1.13628  -0.90849  -0.90098  -0.87205  -0.84299
 Alpha  occ. eigenvalues --   -0.74846  -0.74724  -0.73782  -0.70044  -0.65937
 Alpha  occ. eigenvalues --   -0.62913  -0.60136  -0.59054  -0.57438  -0.57138
 Alpha  occ. eigenvalues --   -0.54717  -0.53103  -0.52233  -0.50575  -0.49661
 Alpha  occ. eigenvalues --   -0.47728  -0.46877  -0.45882  -0.45548  -0.44493
 Alpha  occ. eigenvalues --   -0.44386  -0.42556  -0.41323  -0.40492  -0.39778
 Alpha  occ. eigenvalues --   -0.38805  -0.37614  -0.36910  -0.34698  -0.33646
 Alpha  occ. eigenvalues --   -0.31371
 Alpha virt. eigenvalues --   -0.00182   0.00673   0.00875   0.01145   0.02249
 Alpha virt. eigenvalues --    0.02466   0.02617   0.03312   0.03712   0.04467
 Alpha virt. eigenvalues --    0.04570   0.04846   0.05620   0.05731   0.07124

 Mulliken charges:
               1
     1  C    0.097732
     2  C   -0.387914
     3  C   -0.369980
     4  C   -0.052561
     5  C   -0.341765
     6  C   -0.316923
     7  C   -0.400139
     8  C   -0.138964
     9  O   -0.306034
    10  C   -0.370074
    11  O   -0.246692
    12  C   -0.118471
    13  O   -0.323785
    14  H    0.201612
    15  H    0.161558
    16  H    0.152223
    17  H    0.249264
    18  H    0.201395
    19  H    0.144438
    20  H    0.161254
    21  H    0.169435
    22  H    0.146474
    23  H    0.208012
    24  H    0.212357
    25  H    0.187948
    26  H    0.141384
    27  H    0.206629
    28  H    0.188303
    29  H    0.160634
    30  H    0.190538
    31  H    0.192114
 Sum of Mulliken charges =  -0.00000

 Dipole moment (field-independent basis, Debye):
    X=             -1.5081    Y=              1.9357    Z=             -2.5713  Tot=              3.5543
 Quadrupole moment (field-independent basis, Debye-Ang):
   XX=            -70.1779   YY=            -84.0873   ZZ=            -80.7074
   XY=              4.4871   XZ=              1.5185   YZ=             -0.1638

  Exact polarizability: 175.399   1.340 158.052  -1.512   2.594 151.381
 Approx polarizability: 146.540   1.710 142.727  -1.441   3.221 142.855

                      1                      2                      3
                      A                      A                      A
 Frequencies --     27.1466                56.5129                67.7487
 Red. masses --      3.7275                 3.6273                 2.6099
 Frc consts  --      0.0016                 0.0068                 0.0071
 IR Inten    --      1.7723                 2.3040                 0.9116

                      4                      5                      6
                      A                      A                      A
 Frequencies --     98.2767               168.5639               220.5343
 Red. masses --      2.8893                 2.3022                 2.9849
 Frc consts  --      0.0164                 0.0385                 0.0855
 IR Inten    --      0.4096                 0.8208                 1.6708

                      7                      8                      9
                      A                      A                      A
 Frequencies --    243.7622               261.2071               325.3910
 Red. masses --      2.3274                 2.5782                 3.3962
 Frc consts  --      0.0815                 0.1036                 0.2119
 IR Inten    --      2.6528                 2.7658                21.4339

                     10                     11                     12
                      A                      A                      A
 Frequencies --    350.3380               395.7265               439.1763
 Red. masses --      3.0561                 3.2806                 3.2833
 Frc consts  --      0.2210                 0.3027                 0.3731
 IR Inten    --      3.6878                21.2126                 4.9011

                     13                     14                     15
                      A                      A                      A
 Frequencies --    451.1193               458.3922               501.6347
 Red. masses --      3.0467                 2.9345                 4.1785
 Frc consts  --      0.3653                 0.3633                 0.6195
 IR Inten    --      1.1560                 2.6805                 7.9083

                     16                     17                     18
                      A                      A                      A
 Frequencies --    505.5676               584.6914               609.6953
 Red. masses --      2.7529                 2.0541                 1.8657
 Frc consts  --      0.4146                 0.4137                 0.4086
 IR Inten    --      2.8959                 0.7315                 7.3670

                     19                     20                     21
                      A                      A                      A
 Frequencies --    682.5942               778.7674               828.7203
 Red. masses --      4.2565                 1.3244                 2.3635
 Frc consts  --      1.1685                 0.4732                 0.9564
 IR Inten    --      5.4822                 5.3794                 4.4581

                     22                     23                     24
                      A                      A                      A
 Frequencies --    844.3197               876.1382               887.0410
 Red. masses --      2.3209                 1.3965                 2.7264
 Frc consts  --      0.9748                 0.6316                 1.2640
 IR Inten    --      0.2977                 7.5480                 2.9764

                     25                     26                     27
                      A                      A                      A
 Frequencies --    901.4001               912.8761               945.9200
 Red. masses --      2.2432                 2.3971                 2.3976
 Frc consts  --      1.0739                 1.1769                 1.2640
 IR Inten    --     14.8995                30.2962                43.9640

                     28                     29                     30
                      A                      A                      A
 Frequencies --    963.6308               990.9516               994.6107
 Red. masses --      2.1117                 2.1012                 1.4701
 Frc consts  --      1.1553                 1.2157                 0.8568
 IR Inten    --     36.6949                27.2814                 7.9089

                     31                     32                     33
                      A                      A                      A
 Frequencies --   1002.1366              1050.5395              1064.9515
 Red. masses --      1.7586                 1.8618                 2.5693
 Frc consts  --      1.0406                 1.2106                 1.7168
 IR Inten    --      6.1744                18.3440                 2.7094

                     34                     35                     36
                      A                      A                      A
 Frequencies --   1074.8517              1091.6927              1115.9302
 Red. masses --      2.3626                 1.8233                 4.5201
 Frc consts  --      1.6082                 1.2803                 3.3164
 IR Inten    --     21.2927               163.3648               318.9603

                     37                     38                     39
                      A                      A                      A
 Frequencies --   1148.4201              1153.4679              1160.7754
 Red. masses --      2.8489                 2.7691                 2.3825
 Frc consts  --      2.2138                 2.1707                 1.8913
 IR Inten    --    102.3916                35.9156                20.2038

                     40                     41                     42
                      A                      A                      A
 Frequencies --   1171.5236              1194.7404              1210.7064
 Red. masses --      2.8890                 2.2998                 1.5986
 Frc consts  --      2.3362                 1.9341                 1.3806
 IR Inten    --    201.7872                91.0469                 8.9213

                     43                     44                     45
                      A                      A                      A
 Frequencies --   1225.9894              1249.4466              1251.0385
 Red. masses --      1.5086                 1.6226                 1.5202
 Frc consts  --      1.3360                 1.4924                 1.4018
 IR Inten    --     20.8522                54.0352                55.0760

                     46                     47                     48
                      A                      A                      A
 Frequencies --   1284.5934              1303.5655              1306.3329
 Red. masses --      1.1991                 1.2104                 1.1939
 Frc consts  --      1.1658                 1.2118                 1.2004
 IR Inten    --      6.1131                24.0806                13.5001

                     49                     50                     51
                      A                      A                      A
 Frequencies --   1327.5835              1342.7539              1347.3517
 Red. masses --      1.2934                 1.2592                 1.2997
 Frc consts  --      1.3431                 1.3376                 1.3901
 IR Inten    --      9.9756                 3.7739                 2.5721

                     52                     53                     54
                      A                      A                      A
 Frequencies --   1353.2994              1370.4317              1373.6103
 Red. masses --      1.2257                 1.3602                 1.4442
 Frc consts  --      1.3226                 1.5051                 1.6054
 IR Inten    --      7.1340                 2.9125                 5.1123

                     55                     56                     57
                      A                      A                      A
 Frequencies --   1383.4496              1388.8711              1401.0358
 Red. masses --      1.4489                 1.5027                 1.2642
 Frc consts  --      1.6339                 1.7079                 1.4621
 IR Inten    --      1.8694                 3.8696                 6.8709

                     58                     59                     60
                      A                      A                      A
 Frequencies --   1414.2555              1423.7015              1430.6778
 Red. masses --      1.4239                 1.4158                 1.2555
 Frc consts  --      1.6779                 1.6908                 1.5141
 IR Inten    --     18.6376                38.7195                 6.6995

                     61                     62                     63
                      A                      A                      A
 Frequencies --   1431.4025              1480.9908              1485.3909
 Red. masses --      1.4510                 1.0915                 1.0773
 Frc consts  --      1.7516                 1.4105                 1.4005
 IR Inten    --      6.6913                 7.7496                 1.4937

                     64                     65                     66
                      A                      A                      A
 Frequencies --   1492.1684              1494.2656              1501.4276
 Red. masses --      1.1010                 1.1131                 1.0824
 Frc consts  --      1.4444                 1.4643                 1.4376
 IR Inten    --     15.6623                 6.4948                 0.9437

                     67                     68                     69
                      A                      A                      A
 Frequencies --   1507.2777              1514.2942              1529.8975
 Red. masses --      1.0967                 1.1008                 1.0879
 Frc consts  --      1.4680                 1.4872                 1.5003
 IR Inten    --     13.1724                 9.5944                 5.1002

                     70                     71                     72
                      A                      A                      A
 Frequencies --   3014.7437              3019.3530              3056.1728
 Red. masses --      1.0702                 1.0704                 1.0656
 Frc consts  --      5.7307                 5.7495                 5.8642
 IR Inten    --     46.6911                91.9889                23.5628

                     73                     74                     75
                      A                      A                      A
 Frequencies --   3061.9166              3068.9886              3072.3333
 Red. masses --      1.0701                 1.0626                 1.0714
 Frc consts  --      5.9108                 5.8970                 5.9584
 IR Inten    --     34.9325                26.2860                39.8963

                     76                     77                     78
                      A                      A                      A
 Frequencies --   3076.6329              3083.5407              3086.1440
 Red. masses --      1.0690                 1.0772                 1.0649
 Frc consts  --      5.9618                 6.0345                 5.9760
 IR Inten    --     13.9521                20.8245                44.9784

                     79                     80                     81
                      A                      A                      A
 Frequencies --   3087.7070              3113.0670              3118.5238
 Red. masses --      1.0765                 1.0987                 1.0993
 Frc consts  --      6.0469                 6.2735                 6.2990
 IR Inten    --    102.4032                44.0077                18.6694

                     82                     83                     84
                      A                      A                      A
 Frequencies --   3119.4873              3132.3296              3133.4467
 Red. masses --      1.1026                 1.0946                 1.0996
 Frc consts  --      6.3219                 6.3279                 6.3610
 IR Inten    --     59.6212                47.0405                34.6648

                     85                     86                     87
                      A                      A                      A
 Frequencies --   3134.6736              3142.8062              3155.9448
 Red. masses --      1.0996                 1.1012                 1.0942
 Frc consts  --      6.3659                 6.4084                 6.4208
 IR Inten    --     60.0227                53.1389                21.1239

 - Thermochemistry -
 -------------------
 Temperature   298.150 Kelvin.  Pressure   1.00000 Atm.
 Atom     1 has atomic number  6 and mass  12.00000

 Molecular mass:   186.12559 amu.
 Principal axes and moments of inertia in atomic units:
                           1         2         3
     Eigenvalues --  1027.313514128.162614465.67427
           X            0.99997   0.00702   0.00417
           Y           -0.00697   0.99992  -0.01042
           Z           -0.00424   0.01039   0.99994
 This molecule is an asymmetric top.
 Rotational symmetry number  1.
 Warning -- assumption of classical behavior for rotation
           may cause significant error
 Rotational temperatures (Kelvin)      0.08431     0.02098     0.01940
 Rotational constants (GHZ):           1.75676     0.43718     0.40414
 Zero-point vibrational energy     736332.1 (Joules/Mol)
                                  175.98758 (Kcal/Mol)
 Warning -- explicit consideration of  18 degrees of freedom as
           vibrations may cause significant error
 Vibrational temperatures:     39.06    81.31    97.48   141.40   242.53
          (Kelvin)            317.30   350.72   375.82   468.17   504.06
                              569.36   631.88   649.06   659.52   721.74
                              727.40   841.24   877.22   982.10  1120.47
                             1192.34  1214.79  1260.57  1276.25  1296.91
                             1313.43  1360.97  1386.45  1425.76  1431.02
                             1441.85  1511.49  1532.23  1546.47  1570.70
                             1605.57  1652.32  1659.58  1670.10  1685.56
                             1718.97  1741.94  1763.93  1797.67  1799.97
                             1848.24  1875.54  1879.52  1910.10  1931.92
                             1938.54  1947.10  1971.75  1976.32  1990.48
                             1998.28  2015.78  2034.80  2048.39  2058.43
                             2059.47  2130.82  2137.15  2146.90  2149.91
                             2160.22  2168.64  2178.73  2201.18  4337.54
                             4344.18  4397.15  4405.42  4415.59  4420.40
                             4426.59  4436.53  4440.27  4442.52  4479.01
                             4486.86  4488.25  4506.72  4508.33  4510.10
                             4521.80  4540.70

 Zero-point correction=                           0.280454 (Hartree/Particle)
 Thermal correction to Energy=                    0.292488
 Thermal correction to Enthalpy=                  0.293432
 Thermal correction to Gibbs Free Energy=         0.241072
 Sum of electronic and zero-point Energies=           -617.212451
 Sum of electronic and thermal Energies=              -617.200417
 Sum of electronic and thermal Enthalpies=            -617.199472
 Sum of electronic and thermal Free Energies=         -617.251833

                     E (Thermal)             CV                S
                      KCal/Mol        Cal/Mol-Kelvin    Cal/Mol-Kelvin
 Total                  183.539             47.024            110.203
 Electronic               0.000              0.000              0.000
 Translational            0.889              2.981             41.570
 Rotational               0.889              2.981             31.316
 Vibrational            181.762             41.063             37.317
 Vibration     1          0.593              1.984              6.028
 Vibration     2          0.596              1.975              4.575
 Vibration     3          0.598              1.970              4.218
 Vibration     4          0.604              1.950              3.488
 Vibration     5          0.625              1.881              2.451
 Vibration     6          0.647              1.810              1.955
 Vibration     7          0.659              1.773              1.775
 Vibration     8          0.669              1.744              1.654
 Vibration     9          0.709              1.625              1.283
 Vibration    10          0.727              1.575              1.165
 Vibration    11          0.762              1.479              0.978
 Vibration    12          0.799              1.385              0.829
 Vibration    13          0.810              1.358              0.792
 Vibration    14          0.816              1.342              0.771
 Vibration    15          0.857              1.246              0.654
 Vibration    16          0.861              1.238              0.644
 Vibration    17          0.942              1.064              0.477
 Vibration    18          0.969              1.011              0.433

 Optimization completed.
    -- Stationary point found.
 Normal termination of Gaussian 16 at Mon Nov  5 01:27:21 2018.
