 Gaussian 16, Revision A.03,
 Gaussian 16:  ES64L-G16RevA.03 25-Dec-2016

 ----------------------------------------------------------------------
 #M062X/6-311++G(2d,2p) opt=ModRedundant freq=noraman SCRF=(Solvent=Wat
 er)
 ----------------------------------------------------------------------

 ----------------------------
 2SO_1_e4_D_PHI.inp_extract_9
 ----------------------------
 Symbolic Z-matrix:
 Charge =  0 Multiplicity = 1

 SCF Done:  E(RM062X) =  -617.491777872     A.U. after   12 cycles
 SCF Done:  E(RM062X) =  -617.493230951     A.U. after   11 cycles
 SCF Done:  E(RM062X) =  -617.493467027     A.U. after   10 cycles
 SCF Done:  E(RM062X) =  -617.493539035     A.U. after    9 cycles
 SCF Done:  E(RM062X) =  -617.493544529     A.U. after    8 cycles
 SCF Done:  E(RM062X) =  -617.493546821     A.U. after    9 cycles
 SCF Done:  E(RM062X) =  -617.493547818     A.U. after    8 cycles
 SCF Done:  E(RM062X) =  -617.493549009     A.U. after    8 cycles
 SCF Done:  E(RM062X) =  -617.493549432     A.U. after    8 cycles
 SCF Done:  E(RM062X) =  -617.493549767     A.U. after    8 cycles
 SCF Done:  E(RM062X) =  -617.493549984     A.U. after    8 cycles
 SCF Done:  E(RM062X) =  -617.493550015     A.U. after    7 cycles
 Optimization completed.
    -- Stationary point found.
 Normal termination of Gaussian 16 at Mon Nov  5 00:32:55 2018.

 ----------------------------------------------------------------------
 #N Geom=AllCheck Guess=TCheck SCRF=Check GenChk RM062X/6-311++G(2d,2p)
  Freq
 ----------------------------------------------------------------------

 Structure from the checkpoint file:  "2SO_1_e4_D_PHI.inp_extract_9.chk"
 ----------------------------
 2SO_1_e4_D_PHI.inp_extract_9
 ----------------------------
 Charge =  0 Multiplicity = 1

                         Standard orientation:
 ---------------------------------------------------------------------
 Center     Atomic      Atomic             Coordinates (Angstroms)
 Number     Number       Type             X           Y           Z
 ---------------------------------------------------------------------
      1          6           0        0.921927    0.097319    0.280524
      2          6           0       -3.472146   -0.456804   -0.908682
      3          6           0       -1.366356    0.162748    1.015448
      4          6           0       -2.166280   -1.230687   -0.785922
      5          6           0       -3.331962    0.949970   -0.285651
      6          6           0        1.742008    1.356429    0.048365
      7          6           0        1.832900   -1.059682    0.671093
      8          6           0        3.667868   -0.146114   -0.475564
      9          8           0        2.830625   -1.283327   -0.307538
     10          6           0        2.870443    1.062310   -0.940250
     11          8           0       -0.004744    0.296380    1.341767
     12          6           0       -1.874923    1.242914    0.073456
     13          8           0       -1.629640   -1.141761    0.532776
     14          1           0        0.403037   -0.180072   -0.639286
     15          1           0       -4.265065   -1.012612   -0.409874
     16          1           0       -3.736472   -0.394863   -1.964332
     17          1           0       -1.873969    0.254131    1.977398
     18          1           0       -2.317366   -2.291892   -0.968726
     19          1           0       -1.437412   -0.871990   -1.516628
     20          1           0       -3.929111    1.010748    0.625179
     21          1           0       -3.710549    1.714963   -0.960308
     22          1           0        1.099587    2.162507   -0.307688
     23          1           0        2.161537    1.668686    1.008888
     24          1           0        1.254192   -1.976695    0.762690
     25          1           0        2.295514   -0.834563    1.640601
     26          1           0        4.168073    0.076229    0.475094
     27          1           0        4.423527   -0.428886   -1.205241
     28          1           0        3.533354    1.922280   -1.036635
     29          1           0        2.455773    0.852856   -1.928774
     30          1           0       -1.257988    1.286847   -0.825749
     31          1           0       -1.777465    2.201578    0.580449
 ---------------------------------------------------------------------

 SCF Done:  E(RM062X) =  -617.493550015     A.U. after    1 cycles

 The electronic state is 1-A.
 Alpha  occ. eigenvalues --  -19.63196 -19.63179 -19.63089 -10.63843 -10.58687
 Alpha  occ. eigenvalues --  -10.58270 -10.58052 -10.57886 -10.53520 -10.53465
 Alpha  occ. eigenvalues --  -10.53275 -10.53181 -10.53116  -1.19895  -1.16579
 Alpha  occ. eigenvalues --   -1.13628  -0.90781  -0.90216  -0.87338  -0.84364
 Alpha  occ. eigenvalues --   -0.74952  -0.74805  -0.73759  -0.70124  -0.66064
 Alpha  occ. eigenvalues --   -0.62954  -0.60289  -0.59070  -0.57536  -0.56913
 Alpha  occ. eigenvalues --   -0.54501  -0.53243  -0.52060  -0.51131  -0.49764
 Alpha  occ. eigenvalues --   -0.47951  -0.46943  -0.45883  -0.45761  -0.44754
 Alpha  occ. eigenvalues --   -0.44415  -0.41996  -0.41323  -0.40596  -0.39764
 Alpha  occ. eigenvalues --   -0.38603  -0.37976  -0.36875  -0.35051  -0.33467
 Alpha  occ. eigenvalues --   -0.31619
 Alpha virt. eigenvalues --   -0.00198   0.00688   0.00875   0.01126   0.02259
 Alpha virt. eigenvalues --    0.02470   0.02640   0.03273   0.03714   0.04493
 Alpha virt. eigenvalues --    0.04660   0.04862   0.05560   0.05720   0.07113

 Mulliken charges:
               1
     1  C   -0.037281
     2  C   -0.352580
     3  C   -0.304470
     4  C   -0.081583
     5  C   -0.382853
     6  C   -0.237203
     7  C   -0.352476
     8  C   -0.165231
     9  O   -0.302753
    10  C   -0.370882
    11  O   -0.245167
    12  C   -0.120550
    13  O   -0.346364
    14  H    0.226987
    15  H    0.161557
    16  H    0.152590
    17  H    0.257186
    18  H    0.198492
    19  H    0.134673
    20  H    0.163168
    21  H    0.164911
    22  H    0.151670
    23  H    0.209231
    24  H    0.197379
    25  H    0.188192
    26  H    0.144470
    27  H    0.204208
    28  H    0.184970
    29  H    0.162853
    30  H    0.189071
    31  H    0.207785
 Sum of Mulliken charges =  -0.00000

 Dipole moment (field-independent basis, Debye):
    X=             -1.5158    Y=              3.1058    Z=             -2.4094  Tot=              4.2129
 Quadrupole moment (field-independent basis, Debye-Ang):
   XX=            -71.9872   YY=            -83.1871   ZZ=            -81.2940
   XY=              4.3605   XZ=              2.6305   YZ=              0.0278

  Exact polarizability: 174.732   1.775 156.827  -0.653   2.173 153.229
 Approx polarizability: 146.437   2.162 141.483  -0.826   2.352 144.263

                      1                      2                      3
                      A                      A                      A
 Frequencies --     23.9446                56.0318                70.7448
 Red. masses --      3.8796                 2.6793                 3.4098
 Frc consts  --      0.0013                 0.0050                 0.0101
 IR Inten    --      1.5464                 2.4370                 1.0803

                      4                      5                      6
                      A                      A                      A
 Frequencies --     89.6768               169.4797               217.6614
 Red. masses --      2.9684                 2.3759                 2.8223
 Frc consts  --      0.0141                 0.0402                 0.0788
 IR Inten    --      0.1570                 0.7721                 1.5294

                      7                      8                      9
                      A                      A                      A
 Frequencies --    247.5936               258.7359               327.8926
 Red. masses --      2.2947                 2.6422                 3.0311
 Frc consts  --      0.0829                 0.1042                 0.1920
 IR Inten    --      2.9206                 3.0702                19.3312

                     10                     11                     12
                      A                      A                      A
 Frequencies --    355.8911               415.6729               432.6479
 Red. masses --      2.8257                 3.9524                 2.5789
 Frc consts  --      0.2109                 0.4024                 0.2844
 IR Inten    --      4.9692                11.7538                 9.8325

                     13                     14                     15
                      A                      A                      A
 Frequencies --    455.9318               458.5805               504.7008
 Red. masses --      3.4880                 3.5423                 4.5062
 Frc consts  --      0.4272                 0.4389                 0.6763
 IR Inten    --      0.3552                 1.7066                 8.2084

                     16                     17                     18
                      A                      A                      A
 Frequencies --    506.0932               583.3077               604.5394
 Red. masses --      2.8147                 1.9891                 1.8257
 Frc consts  --      0.4248                 0.3987                 0.3931
 IR Inten    --      2.3188                 3.3079                 9.8345

                     19                     20                     21
                      A                      A                      A
 Frequencies --    681.9141               781.1338               826.6927
 Red. masses --      4.1377                 1.3256                 2.3811
 Frc consts  --      1.1336                 0.4766                 0.9588
 IR Inten    --      7.0816                 5.8714                 6.3799

                     22                     23                     24
                      A                      A                      A
 Frequencies --    844.3184               877.0885               885.7085
 Red. masses --      2.3607                 1.4018                 2.7162
 Frc consts  --      0.9915                 0.6354                 1.2554
 IR Inten    --      2.0092                 9.9830                 3.7486

                     25                     26                     27
                      A                      A                      A
 Frequencies --    900.7434               912.6121               944.3311
 Red. masses --      2.2643                 2.3529                 2.3584
 Frc consts  --      1.0824                 1.1546                 1.2391
 IR Inten    --     23.1413                31.5803                54.6114

                     28                     29                     30
                      A                      A                      A
 Frequencies --    966.6612               991.7302               996.4697
 Red. masses --      2.1278                 1.6663                 1.9149
 Frc consts  --      1.1715                 0.9656                 1.1203
 IR Inten    --     26.6489                12.9361                22.7985

                     31                     32                     33
                      A                      A                      A
 Frequencies --   1005.4095              1051.5995              1068.2950
 Red. masses --      1.6357                 1.7989                 2.8350
 Frc consts  --      0.9742                 1.1721                 1.9063
 IR Inten    --      4.1995                19.2175                 5.6891

                     34                     35                     36
                      A                      A                      A
 Frequencies --   1074.7494              1090.8446              1115.2433
 Red. masses --      2.3562                 1.8808                 4.3363
 Frc consts  --      1.6035                 1.3186                 3.1776
 IR Inten    --     31.9394               183.3905               296.7348

                     37                     38                     39
                      A                      A                      A
 Frequencies --   1151.0218              1154.2535              1162.1441
 Red. masses --      2.9952                 2.5717                 2.4056
 Frc consts  --      2.3380                 2.0187                 1.9142
 IR Inten    --    115.5606                16.9789                31.3002

                     40                     41                     42
                      A                      A                      A
 Frequencies --   1174.0815              1195.7750              1212.0363
 Red. masses --      2.9423                 2.4192                 1.6240
 Frc consts  --      2.3896                 2.0380                 1.4056
 IR Inten    --    171.0161               112.1083                 9.9915

                     43                     44                     45
                      A                      A                      A
 Frequencies --   1228.5456              1248.7211              1251.1267
 Red. masses --      1.4717                 1.5529                 1.5492
 Frc consts  --      1.3088                 1.4266                 1.4287
 IR Inten    --     13.2177                69.7160                29.2999

                     46                     47                     48
                      A                      A                      A
 Frequencies --   1285.5362              1304.7068              1306.5985
 Red. masses --      1.1888                 1.1972                 1.2209
 Frc consts  --      1.1575                 1.2008                 1.2280
 IR Inten    --      8.0984                20.3175                12.7634

                     49                     50                     51
                      A                      A                      A
 Frequencies --   1329.9464              1343.4717              1350.7770
 Red. masses --      1.3012                 1.2644                 1.3026
 Frc consts  --      1.3560                 1.3446                 1.4003
 IR Inten    --     10.2748                 2.4733                 4.7013

                     52                     53                     54
                      A                      A                      A
 Frequencies --   1360.8843              1370.3947              1375.3752
 Red. masses --      1.2339                 1.3418                 1.4547
 Frc consts  --      1.3463                 1.4846                 1.6214
 IR Inten    --      8.2315                 0.0578                11.3959

                     55                     56                     57
                      A                      A                      A
 Frequencies --   1382.6833              1389.4770              1401.8352
 Red. masses --      1.4201                 1.4877                 1.2568
 Frc consts  --      1.5996                 1.6923                 1.4552
 IR Inten    --      3.2507                 8.8862                 4.7695

                     58                     59                     60
                      A                      A                      A
 Frequencies --   1415.4783              1426.6928              1434.5912
 Red. masses --      1.3952                 1.3423                 1.3979
 Frc consts  --      1.6470                 1.6097                 1.6950
 IR Inten    --     15.6979                13.8124                 5.9782

                     61                     62                     63
                      A                      A                      A
 Frequencies --   1439.4150              1480.8272              1485.2443
 Red. masses --      1.3485                 1.0917                 1.0778
 Frc consts  --      1.6461                 1.4105                 1.4009
 IR Inten    --     25.1228                 6.8533                 1.2634

                     64                     65                     66
                      A                      A                      A
 Frequencies --   1493.1307              1496.4724              1501.3025
 Red. masses --      1.1059                 1.1073                 1.0867
 Frc consts  --      1.4527                 1.4610                 1.4431
 IR Inten    --     19.4681                 2.2195                 0.8144

                     67                     68                     69
                      A                      A                      A
 Frequencies --   1508.2226              1513.9612              1530.9189
 Red. masses --      1.0975                 1.1013                 1.0882
 Frc consts  --      1.4709                 1.4873                 1.5026
 IR Inten    --     13.7876                 9.8236                 4.9843

                     70                     71                     72
                      A                      A                      A
 Frequencies --   3018.3005              3020.4113              3056.2919
 Red. masses --      1.0691                 1.0702                 1.0666
 Frc consts  --      5.7382                 5.7523                 5.8699
 IR Inten    --     31.9389               105.3890                56.2587

                     73                     74                     75
                      A                      A                      A
 Frequencies --   3056.6586              3068.4869              3075.9645
 Red. masses --      1.0679                 1.0625                 1.0674
 Frc consts  --      5.8784                 5.8944                 5.9501
 IR Inten    --     19.8561                34.1947                39.1648

                     76                     77                     78
                      A                      A                      A
 Frequencies --   3080.3311              3086.3487              3087.6240
 Red. masses --      1.0766                 1.0695                 1.0682
 Frc consts  --      6.0186                 6.0021                 6.0002
 IR Inten    --     11.9871                14.1683                70.7895

                     79                     80                     81
                      A                      A                      A
 Frequencies --   3092.2256              3111.9497              3118.5225
 Red. masses --      1.0769                 1.0987                 1.0998
 Frc consts  --      6.0670                 6.2688                 6.3020
 IR Inten    --     50.3303                46.4686                19.4263

                     82                     83                     84
                      A                      A                      A
 Frequencies --   3119.8271              3131.7746              3133.5953
 Red. masses --      1.1020                 1.0946                 1.1002
 Frc consts  --      6.3196                 6.3252                 6.3652
 IR Inten    --     55.8294                48.9098                21.9981

                     85                     86                     87
                      A                      A                      A
 Frequencies --   3134.7156              3136.6993              3141.0596
 Red. masses --      1.0990                 1.0961                 1.1027
 Frc consts  --      6.3629                 6.3541                 6.4098
 IR Inten    --     57.0854                38.4841                58.6594

 - Thermochemistry -
 -------------------
 Temperature   298.150 Kelvin.  Pressure   1.00000 Atm.
 Atom     1 has atomic number  6 and mass  12.00000

 Molecular mass:   186.12559 amu.
 Principal axes and moments of inertia in atomic units:
                           1         2         3
     Eigenvalues --  1046.588034190.028584450.23653
           X            0.99997   0.00541   0.00572
           Y           -0.00537   0.99996  -0.00670
           Z           -0.00576   0.00667   0.99996
 This molecule is an asymmetric top.
 Rotational symmetry number  1.
 Warning -- assumption of classical behavior for rotation
           may cause significant error
 Rotational temperatures (Kelvin)      0.08276     0.02067     0.01946
 Rotational constants (GHZ):           1.72440     0.43072     0.40554
 Zero-point vibrational energy     736726.8 (Joules/Mol)
                                  176.08194 (Kcal/Mol)
 Warning -- explicit consideration of  18 degrees of freedom as
           vibrations may cause significant error
 Vibrational temperatures:     34.45    80.62   101.79   129.02   243.84
          (Kelvin)            313.17   356.23   372.26   471.76   512.05
                              598.06   622.48   655.98   659.80   726.15
                              728.16   839.25   869.80   981.12  1123.88
                             1189.43  1214.79  1261.93  1274.34  1295.97
                             1313.05  1358.68  1390.81  1426.88  1433.70
                             1446.56  1513.02  1537.04  1546.32  1569.48
                             1604.59  1656.06  1660.71  1672.07  1689.24
                             1720.45  1743.85  1767.60  1796.63  1800.09
                             1849.60  1877.18  1879.90  1913.50  1932.96
                             1943.47  1958.01  1971.69  1978.86  1989.37
                             1999.15  2016.93  2036.56  2052.69  2064.06
                             2071.00  2130.58  2136.94  2148.28  2153.09
                             2160.04  2170.00  2178.25  2202.65  4342.66
                             4345.70  4397.32  4397.85  4414.87  4425.63
                             4431.91  4440.57  4442.40  4449.02  4477.40
                             4486.86  4488.74  4505.93  4508.54  4510.16
                             4513.01  4519.28

 Zero-point correction=                           0.280604 (Hartree/Particle)
 Thermal correction to Energy=                    0.292629
 Thermal correction to Enthalpy=                  0.293573
 Thermal correction to Gibbs Free Energy=         0.241078
 Sum of electronic and zero-point Energies=           -617.212946
 Sum of electronic and thermal Energies=              -617.200921
 Sum of electronic and thermal Enthalpies=            -617.199977
 Sum of electronic and thermal Free Energies=         -617.252472

                     E (Thermal)             CV                S
                      KCal/Mol        Cal/Mol-Kelvin    Cal/Mol-Kelvin
 Total                  183.628             46.950            110.486
 Electronic               0.000              0.000              0.000
 Translational            0.889              2.981             41.570
 Rotational               0.889              2.981             31.346
 Vibrational            181.850             40.988             37.571
 Vibration     1          0.593              1.985              6.277
 Vibration     2          0.596              1.975              4.592
 Vibration     3          0.598              1.968              4.133
 Vibration     4          0.602              1.956              3.667
 Vibration     5          0.625              1.880              2.441
 Vibration     6          0.646              1.814              1.978
 Vibration     7          0.661              1.767              1.748
 Vibration     8          0.668              1.748              1.670
 Vibration     9          0.711              1.620              1.270
 Vibration    10          0.731              1.563              1.140
 Vibration    11          0.779              1.436              0.907
 Vibration    12          0.794              1.399              0.850
 Vibration    13          0.814              1.348              0.778
 Vibration    14          0.817              1.342              0.770
 Vibration    15          0.860              1.240              0.646
 Vibration    16          0.861              1.236              0.643
 Vibration    17          0.940              1.067              0.479
 Vibration    18          0.963              1.022              0.442

 Optimization completed.
    -- Stationary point found.
 Normal termination of Gaussian 16 at Mon Nov  5 01:27:30 2018.
