 Gaussian 16, Revision A.03,
 Gaussian 16:  ES64L-G16RevA.03 25-Dec-2016

 ----------------------------------------------------------------------
 #M062X/6-311++G(2d,2p) opt=ModRedundant freq=noraman SCRF=(Solvent=Wat
 er)
 ----------------------------------------------------------------------

 -----------------------------
 2SO_1_e4_D_PHI.inp_extract_11
 -----------------------------
 Symbolic Z-matrix:
 Charge =  0 Multiplicity = 1

 SCF Done:  E(RM062X) =  -617.489520949     A.U. after   12 cycles
 SCF Done:  E(RM062X) =  -617.490778905     A.U. after   11 cycles
 SCF Done:  E(RM062X) =  -617.491032917     A.U. after   10 cycles
 SCF Done:  E(RM062X) =  -617.491178790     A.U. after    9 cycles
 SCF Done:  E(RM062X) =  -617.491194811     A.U. after    9 cycles
 SCF Done:  E(RM062X) =  -617.491197061     A.U. after    8 cycles
 SCF Done:  E(RM062X) =  -617.491198024     A.U. after    7 cycles
 SCF Done:  E(RM062X) =  -617.491198540     A.U. after    7 cycles
 SCF Done:  E(RM062X) =  -617.491198508     A.U. after    6 cycles
 SCF Done:  E(RM062X) =  -617.491198446     A.U. after    6 cycles
 Optimization completed.
    -- Stationary point found.
 Normal termination of Gaussian 16 at Mon Nov  5 00:15:47 2018.

 ----------------------------------------------------------------------
 #N Geom=AllCheck Guess=TCheck SCRF=Check GenChk RM062X/6-311++G(2d,2p)
  Freq
 ----------------------------------------------------------------------

 Structure from the checkpoint file:  "2SO_1_e4_D_PHI.inp_extract_11.chk"
 -----------------------------
 2SO_1_e4_D_PHI.inp_extract_11
 -----------------------------
 Charge =  0 Multiplicity = 1

                         Standard orientation:
 ---------------------------------------------------------------------
 Center     Atomic      Atomic             Coordinates (Angstroms)
 Number     Number       Type             X           Y           Z
 ---------------------------------------------------------------------
      1          6           0        0.941497   -0.111915    0.224354
      2          6           0       -3.441476   -0.034327   -1.071861
      3          6           0       -1.367422   -0.058182    1.036709
      4          6           0       -2.393993   -1.126183   -0.847674
      5          6           0       -3.159271    1.161632   -0.145512
      6          6           0        1.652456    1.224288    0.386972
      7          6           0        1.952351   -1.249367    0.320223
      8          6           0        3.714424    0.093595   -0.457707
      9          8           0        2.979283   -1.109795   -0.641926
     10          6           0        2.817278    1.312134   -0.600066
     11          8           0       -0.005874   -0.337427    1.261206
     12          6           0       -1.676739    1.193751    0.222773
     13          8           0       -2.028948   -1.202943    0.528466
     14          1           0        0.470490   -0.171919   -0.759600
     15          1           0       -4.439115   -0.428407   -0.883552
     16          1           0       -3.404798    0.272469   -2.117796
     17          1           0       -1.771424    0.070382    2.041500
     18          1           0       -2.777293   -2.108403   -1.112396
     19          1           0       -1.508322   -0.944807   -1.460580
     20          1           0       -3.743657    1.066200    0.771135
     21          1           0       -3.456405    2.096265   -0.616581
     22          1           0        0.958176    2.052094    0.248540
     23          1           0        2.029219    1.277839    1.412277
     24          1           0        1.461787   -2.203151    0.135606
     25          1           0        2.377929   -1.261957    1.331681
     26          1           0        4.179896    0.082699    0.535485
     27          1           0        4.501689    0.087923   -1.208354
     28          1           0        3.399589    2.217361   -0.427819
     29          1           0        2.437540    1.354281   -1.623315
     30          1           0       -1.075887    1.245561   -0.685495
     31          1           0       -1.429731    2.064335    0.828024
 ---------------------------------------------------------------------

 SCF Done:  E(RM062X) =  -617.491198446     A.U. after    1 cycles

 The electronic state is 1-A.
 Alpha  occ. eigenvalues --  -19.63300 -19.63179 -19.62967 -10.63923 -10.58957
 Alpha  occ. eigenvalues --  -10.58142 -10.58104 -10.58091 -10.53776 -10.53497
 Alpha  occ. eigenvalues --  -10.53327 -10.53218 -10.53063  -1.19661  -1.16711
 Alpha  occ. eigenvalues --   -1.13697  -0.90669  -0.90394  -0.87522  -0.84476
 Alpha  occ. eigenvalues --   -0.75040  -0.75000  -0.73587  -0.70032  -0.66082
 Alpha  occ. eigenvalues --   -0.62921  -0.60338  -0.59203  -0.57778  -0.57042
 Alpha  occ. eigenvalues --   -0.54560  -0.53255  -0.52070  -0.51370  -0.49767
 Alpha  occ. eigenvalues --   -0.48089  -0.47142  -0.45990  -0.45488  -0.44840
 Alpha  occ. eigenvalues --   -0.44555  -0.41476  -0.41107  -0.40731  -0.40353
 Alpha  occ. eigenvalues --   -0.38578  -0.37731  -0.36514  -0.35015  -0.33618
 Alpha  occ. eigenvalues --   -0.32101
 Alpha virt. eigenvalues --   -0.00209   0.00709   0.00850   0.01100   0.02208
 Alpha virt. eigenvalues --    0.02529   0.02642   0.03281   0.03816   0.04521
 Alpha virt. eigenvalues --    0.04684   0.04908   0.05508   0.05872   0.07260

 Mulliken charges:
               1
     1  C   -0.168852
     2  C   -0.354210
     3  C   -0.284719
     4  C   -0.121799
     5  C   -0.342628
     6  C   -0.168199
     7  C   -0.317878
     8  C   -0.199498
     9  O   -0.306802
    10  C   -0.360529
    11  O   -0.252216
    12  C   -0.200727
    13  O   -0.304920
    14  H    0.261267
    15  H    0.162818
    16  H    0.153023
    17  H    0.260589
    18  H    0.201649
    19  H    0.127998
    20  H    0.165920
    21  H    0.173010
    22  H    0.165647
    23  H    0.216089
    24  H    0.191952
    25  H    0.191275
    26  H    0.146531
    27  H    0.201289
    28  H    0.178454
    29  H    0.165155
    30  H    0.212271
    31  H    0.208042
 Sum of Mulliken charges =  -0.00000

 Dipole moment (field-independent basis, Debye):
    X=             -0.8069    Y=              4.0679    Z=             -1.7668  Tot=              4.5078
 Quadrupole moment (field-independent basis, Debye-Ang):
   XX=            -75.4941   YY=            -82.2036   ZZ=            -81.8663
   XY=              2.9264   XZ=              5.4139   YZ=              1.4086

  Exact polarizability: 175.287   2.156 156.873   0.743   1.358 153.031
 Approx polarizability: 146.976   2.554 140.949  -0.293   0.808 144.509

                      1                      2                      3
                      A                      A                      A
 Frequencies --     15.7164                50.2578                73.5276
 Red. masses --      4.4533                 3.8164                 3.1217
 Frc consts  --      0.0006                 0.0057                 0.0099
 IR Inten    --      1.7292                 1.4354                 0.9400

                      4                      5                      6
                      A                      A                      A
 Frequencies --    110.2431               185.7322               223.3168
 Red. masses --      2.6980                 2.4054                 2.3655
 Frc consts  --      0.0193                 0.0489                 0.0695
 IR Inten    --      0.1817                 0.7249                 1.6505

                      7                      8                      9
                      A                      A                      A
 Frequencies --    246.0960               259.9924               307.6285
 Red. masses --      2.2116                 2.4747                 3.5352
 Frc consts  --      0.0789                 0.0986                 0.1971
 IR Inten    --      2.9183                 4.1104                 9.9522

                     10                     11                     12
                      A                      A                      A
 Frequencies --    353.7837               400.3880               433.1773
 Red. masses --      2.8407                 2.7733                 2.8155
 Frc consts  --      0.2095                 0.2619                 0.3113
 IR Inten    --      8.5464                 7.4092                10.1457

                     13                     14                     15
                      A                      A                      A
 Frequencies --    454.9289               470.7640               506.7676
 Red. masses --      3.3744                 3.1813                 3.6399
 Frc consts  --      0.4115                 0.4154                 0.5507
 IR Inten    --      3.2358                 0.0659                 3.2448

                     16                     17                     18
                      A                      A                      A
 Frequencies --    510.5538               589.8685               618.3065
 Red. masses --      4.0986                 2.0738                 1.9025
 Frc consts  --      0.6295                 0.4251                 0.4285
 IR Inten    --      6.7509                13.4763                 9.9613

                     19                     20                     21
                      A                      A                      A
 Frequencies --    679.9267               777.1227               824.9885
 Red. masses --      4.2877                 1.3174                 2.2494
 Frc consts  --      1.1679                 0.4688                 0.9020
 IR Inten    --      9.5602                 3.2503                 8.1730

                     22                     23                     24
                      A                      A                      A
 Frequencies --    837.2127               874.6790               886.0365
 Red. masses --      2.4679                 1.4035                 2.8145
 Frc consts  --      1.0192                 0.6326                 1.3019
 IR Inten    --     12.9802                12.4214                 9.2731

                     25                     26                     27
                      A                      A                      A
 Frequencies --    898.5543               916.6359               943.1012
 Red. masses --      2.4327                 2.1710                 2.2587
 Frc consts  --      1.1573                 1.0747                 1.1837
 IR Inten    --     27.1548                31.6959                50.0043

                     28                     29                     30
                      A                      A                      A
 Frequencies --    961.9623               988.8880               998.5450
 Red. masses --      2.0517                 2.0298                 1.6119
 Frc consts  --      1.1186                 1.1695                 0.9469
 IR Inten    --     25.3597                23.6146                17.7899

                     31                     32                     33
                      A                      A                      A
 Frequencies --   1008.2458              1053.2718              1063.2432
 Red. masses --      1.7384                 2.0231                 2.4281
 Frc consts  --      1.0412                 1.3223                 1.6173
 IR Inten    --      7.7607                 9.2865                 4.6262

                     34                     35                     36
                      A                      A                      A
 Frequencies --   1076.3723              1077.7335              1105.3145
 Red. masses --      2.0347                 2.2698                 3.7797
 Frc consts  --      1.3889                 1.5533                 2.7207
 IR Inten    --    169.5070               136.5651               271.3204

                     37                     38                     39
                      A                      A                      A
 Frequencies --   1148.3019              1151.4422              1167.4267
 Red. masses --      2.4273                 3.0109                 2.5297
 Frc consts  --      1.8858                 2.3520                 2.0313
 IR Inten    --     31.3550                85.4066                53.8410

                     40                     41                     42
                      A                      A                      A
 Frequencies --   1172.4581              1194.5350              1212.0344
 Red. masses --      2.8190                 2.6541                 1.5522
 Frc consts  --      2.2832                 2.2313                 1.3435
 IR Inten    --    136.1147               108.3566                12.5566

                     43                     44                     45
                      A                      A                      A
 Frequencies --   1223.4735              1243.9159              1250.4713
 Red. masses --      1.4648                 1.5898                 1.5154
 Frc consts  --      1.2919                 1.4494                 1.3961
 IR Inten    --     14.5233                68.9786                19.5968

                     46                     47                     48
                      A                      A                      A
 Frequencies --   1291.1559              1304.4236              1307.8774
 Red. masses --      1.1916                 1.1689                 1.2279
 Frc consts  --      1.1704                 1.1718                 1.2375
 IR Inten    --      9.5669                24.6279                 4.8935

                     49                     50                     51
                      A                      A                      A
 Frequencies --   1330.3182              1342.8704              1350.8874
 Red. masses --      1.2909                 1.2492                 1.3171
 Frc consts  --      1.3460                 1.3272                 1.4161
 IR Inten    --     10.4641                 1.0145                 6.1339

                     52                     53                     54
                      A                      A                      A
 Frequencies --   1353.8448              1369.0040              1377.0837
 Red. masses --      1.2266                 1.4264                 1.4232
 Frc consts  --      1.3246                 1.5750                 1.5901
 IR Inten    --     13.7035                 4.4774                13.0961

                     55                     56                     57
                      A                      A                      A
 Frequencies --   1383.8265              1390.4535              1405.9120
 Red. masses --      1.4427                 1.4258                 1.2964
 Frc consts  --      1.6277                 1.6241                 1.5097
 IR Inten    --      5.6994                 9.8924                 0.7367

                     58                     59                     60
                      A                      A                      A
 Frequencies --   1414.3825              1427.1311              1431.4039
 Red. masses --      1.3929                 1.4177                 1.4295
 Frc consts  --      1.6418                 1.7012                 1.7257
 IR Inten    --     11.1338                34.9504                 4.0991

                     61                     62                     63
                      A                      A                      A
 Frequencies --   1440.1254              1479.0089              1487.6060
 Red. masses --      1.2185                 1.0921                 1.0781
 Frc consts  --      1.4889                 1.4075                 1.4057
 IR Inten    --      6.8791                 7.1697                 2.2334

                     64                     65                     66
                      A                      A                      A
 Frequencies --   1493.2834              1500.1152              1501.8939
 Red. masses --      1.1082                 1.0958                 1.0910
 Frc consts  --      1.4560                 1.4529                 1.4499
 IR Inten    --     16.5797                 1.7250                 1.9041

                     67                     68                     69
                      A                      A                      A
 Frequencies --   1505.4882              1514.6126              1528.9268
 Red. masses --      1.0988                 1.1012                 1.0881
 Frc consts  --      1.4674                 1.4884                 1.4986
 IR Inten    --      8.8668                 9.6704                 5.6745

                     70                     71                     72
                      A                      A                      A
 Frequencies --   3019.3751              3021.8202              3059.5688
 Red. masses --      1.0690                 1.0703                 1.0692
 Frc consts  --      5.7421                 5.7581                 5.8970
 IR Inten    --     32.9592               101.4923                19.7151

                     73                     74                     75
                      A                      A                      A
 Frequencies --   3064.1467              3069.9570              3074.6251
 Red. masses --      1.0698                 1.0630                 1.0670
 Frc consts  --      5.9178                 5.9029                 5.9431
 IR Inten    --     34.2750                22.6476                56.9741

                     76                     77                     78
                      A                      A                      A
 Frequencies --   3079.0581              3082.5114              3090.5328
 Red. masses --      1.0734                 1.0662                 1.0847
 Frc consts  --      5.9957                 5.9688                 6.1041
 IR Inten    --     26.5008                66.2999                 9.4756

                     79                     80                     81
                      A                      A                      A
 Frequencies --   3095.0659              3118.9533              3119.9683
 Red. masses --      1.0640                 1.0988                 1.0998
 Frc consts  --      6.0054                 6.2979                 6.3074
 IR Inten    --     60.9918                27.7467                45.7581

                     82                     83                     84
                      A                      A                      A
 Frequencies --   3127.6991              3132.7845              3133.5885
 Red. masses --      1.0979                 1.0948                 1.0999
 Frc consts  --      6.3279                 6.3307                 6.3632
 IR Inten    --     40.1625                50.1358                34.1212

                     85                     86                     87
                      A                      A                      A
 Frequencies --   3135.3453              3139.4392              3144.1218
 Red. masses --      1.0961                 1.1021                 1.1018
 Frc consts  --      6.3486                 6.4002                 6.4171
 IR Inten    --     36.6505                58.7650                49.8945

 - Thermochemistry -
 -------------------
 Temperature   298.150 Kelvin.  Pressure   1.00000 Atm.
 Atom     1 has atomic number  6 and mass  12.00000

 Molecular mass:   186.12559 amu.
 Principal axes and moments of inertia in atomic units:
                           1         2         3
     Eigenvalues --  1049.946844266.487404551.76210
           X            0.99995   0.00246   0.00927
           Y           -0.00260   0.99988   0.01495
           Z           -0.00923  -0.01497   0.99985
 This molecule is an asymmetric top.
 Rotational symmetry number  1.
 Warning -- assumption of classical behavior for rotation
           may cause significant error
 Rotational temperatures (Kelvin)      0.08249     0.02030     0.01903
 Rotational constants (GHZ):           1.71889     0.42300     0.39649
 Zero-point vibrational energy     736822.7 (Joules/Mol)
                                  176.10486 (Kcal/Mol)
 Warning -- explicit consideration of  18 degrees of freedom as
           vibrations may cause significant error
 Vibrational temperatures:     22.61    72.31   105.79   158.62   267.23
          (Kelvin)            321.30   354.08   374.07   442.61   509.02
                              576.07   623.25   654.54   677.32   729.13
                              734.57   848.69   889.61   978.26  1118.11
                             1186.97  1204.56  1258.47  1274.81  1292.82
                             1318.83  1356.91  1384.05  1422.79  1436.68
                             1450.64  1515.42  1529.77  1548.66  1550.62
                             1590.30  1652.15  1656.67  1679.67  1686.91
                             1718.67  1743.85  1760.31  1789.72  1799.15
                             1857.69  1876.77  1881.74  1914.03  1932.09
                             1943.63  1947.88  1969.69  1981.32  1991.02
                             2000.55  2022.79  2034.98  2053.32  2059.47
                             2072.02  2127.96  2140.33  2148.50  2158.33
                             2160.89  2166.06  2179.19  2199.78  4344.21
                             4347.73  4402.04  4408.62  4416.98  4423.70
                             4430.08  4435.05  4446.59  4453.11  4487.48
                             4488.94  4500.06  4507.38  4508.53  4511.06
                             4516.95  4523.69

 Zero-point correction=                           0.280641 (Hartree/Particle)
 Thermal correction to Energy=                    0.292640
 Thermal correction to Enthalpy=                  0.293584
 Thermal correction to Gibbs Free Energy=         0.240847
 Sum of electronic and zero-point Energies=           -617.210557
 Sum of electronic and thermal Energies=              -617.198558
 Sum of electronic and thermal Enthalpies=            -617.197614
 Sum of electronic and thermal Free Energies=         -617.250351

                     E (Thermal)             CV                S
                      KCal/Mol        Cal/Mol-Kelvin    Cal/Mol-Kelvin
 Total                  183.634             46.959            110.994
 Electronic               0.000              0.000              0.000
 Translational            0.889              2.981             41.570
 Rotational               0.889              2.981             31.389
 Vibrational            181.857             40.997             38.035
 Vibration     1          0.593              1.986              7.113
 Vibration     2          0.595              1.977              4.807
 Vibration     3          0.599              1.966              4.057
 Vibration     4          0.606              1.941              3.265
 Vibration     5          0.632              1.859              2.270
 Vibration     6          0.649              1.806              1.932
 Vibration     7          0.661              1.769              1.758
 Vibration     8          0.668              1.746              1.662
 Vibration     9          0.697              1.659              1.375
 Vibration    10          0.730              1.567              1.149
 Vibration    11          0.766              1.469              0.961
 Vibration    12          0.794              1.398              0.848
 Vibration    13          0.813              1.350              0.781
 Vibration    14          0.828              1.315              0.735
 Vibration    15          0.862              1.235              0.641
 Vibration    16          0.866              1.227              0.632
 Vibration    17          0.947              1.053              0.467
 Vibration    18          0.978              0.993              0.419

 Optimization completed.
    -- Stationary point found.
 Normal termination of Gaussian 16 at Mon Nov  5 01:14:19 2018.
