 Gaussian 16, Revision A.03,
 Gaussian 16:  ES64L-G16RevA.03 25-Dec-2016

 ----------------------------------------------------------------------
 #M062X/6-311++G(2d,2p) opt=ModRedundant freq=noraman SCRF=(Solvent=Wat
 er)
 ----------------------------------------------------------------------

 ----------------------------
 2SO_1_e4_D_PHI.inp_extract_1
 ----------------------------
 Symbolic Z-matrix:
 Charge =  0 Multiplicity = 1

 SCF Done:  E(RM062X) =  -617.496705254     A.U. after   12 cycles
 SCF Done:  E(RM062X) =  -617.498261154     A.U. after   10 cycles
 SCF Done:  E(RM062X) =  -617.498488027     A.U. after   10 cycles
 SCF Done:  E(RM062X) =  -617.498648965     A.U. after   10 cycles
 SCF Done:  E(RM062X) =  -617.498708774     A.U. after    9 cycles
 SCF Done:  E(RM062X) =  -617.498751690     A.U. after    9 cycles
 SCF Done:  E(RM062X) =  -617.498754795     A.U. after    9 cycles
 SCF Done:  E(RM062X) =  -617.498756025     A.U. after    9 cycles
 SCF Done:  E(RM062X) =  -617.498756570     A.U. after    8 cycles
 SCF Done:  E(RM062X) =  -617.498756584     A.U. after    6 cycles
 Optimization completed.
    -- Stationary point found.
 Normal termination of Gaussian 16 at Mon Nov  5 00:19:19 2018.

 ----------------------------------------------------------------------
 #N Geom=AllCheck Guess=TCheck SCRF=Check GenChk RM062X/6-311++G(2d,2p)
  Freq
 ----------------------------------------------------------------------

 Structure from the checkpoint file:  "2SO_1_e4_D_PHI.inp_extract_1.chk"
 ----------------------------
 2SO_1_e4_D_PHI.inp_extract_1
 ----------------------------
 Charge =  0 Multiplicity = 1

                         Standard orientation:
 ---------------------------------------------------------------------
 Center     Atomic      Atomic             Coordinates (Angstroms)
 Number     Number       Type             X           Y           Z
 ---------------------------------------------------------------------
      1          6           0        1.095905   -0.313989   -0.187771
      2          6           0       -3.657215    0.883281    0.246072
      3          6           0       -1.243893   -0.684591   -0.426583
      4          6           0       -2.206542    1.374624    0.177771
      5          6           0       -3.714059   -0.609878   -0.114360
      6          6           0        1.471653    1.066782    0.329997
      7          6           0        2.182043   -1.320299    0.170415
      8          6           0        3.855047    0.328654    0.206539
      9          8           0        3.441924   -0.920413   -0.334117
     10          6           0        2.875409    1.434343   -0.151705
     11          8           0       -0.113140   -0.776721    0.402025
     12          6           0       -2.422738   -1.291174    0.329943
     13          8           0       -1.490877    0.647385   -0.817721
     14          1           0        0.990059   -0.283300   -1.276922
     15          1           0       -4.285477    1.458569   -0.432636
     16          1           0       -4.035730    1.044313    1.256360
     17          1           0       -1.053714   -1.212316   -1.364919
     18          1           0       -2.144447    2.423584   -0.100595
     19          1           0       -1.703383    1.252778    1.140354
     20          1           0       -3.822274   -0.725099   -1.193758
     21          1           0       -4.578032   -1.085210    0.345952
     22          1           0        0.731973    1.798452    0.007779
     23          1           0        1.453275    1.031923    1.423305
     24          1           0        1.955314   -2.293351   -0.261346
     25          1           0        2.225078   -1.421838    1.262460
     26          1           0        3.939058    0.238577    1.296583
     27          1           0        4.844592    0.524150   -0.200958
     28          1           0        3.203838    2.372595    0.295812
     29          1           0        2.875467    1.568440   -1.235714
     30          1           0       -2.267133   -1.135689    1.399416
     31          1           0       -2.445374   -2.365113    0.155409
 ---------------------------------------------------------------------

 SCF Done:  E(RM062X) =  -617.498756584     A.U. after    1 cycles

 The electronic state is 1-A.
 Alpha  occ. eigenvalues --  -19.63367 -19.63113 -19.63064 -10.63675 -10.58621
 Alpha  occ. eigenvalues --  -10.58022 -10.58004 -10.57910 -10.53254 -10.53214
 Alpha  occ. eigenvalues --  -10.53183 -10.52940 -10.52913  -1.20241  -1.16624
 Alpha  occ. eigenvalues --   -1.13714  -0.90905  -0.89674  -0.87226  -0.84143
 Alpha  occ. eigenvalues --   -0.75220  -0.74053  -0.73172  -0.70272  -0.65684
 Alpha  occ. eigenvalues --   -0.62677  -0.60129  -0.59200  -0.58468  -0.56681
 Alpha  occ. eigenvalues --   -0.55108  -0.52777  -0.52353  -0.49357  -0.49002
 Alpha  occ. eigenvalues --   -0.48006  -0.47739  -0.46004  -0.45462  -0.44357
 Alpha  occ. eigenvalues --   -0.44259  -0.42240  -0.40791  -0.40599  -0.39197
 Alpha  occ. eigenvalues --   -0.38415  -0.38037  -0.35977  -0.35453  -0.34182
 Alpha  occ. eigenvalues --   -0.31869
 Alpha virt. eigenvalues --   -0.00066   0.00744   0.00826   0.01097   0.02133
 Alpha virt. eigenvalues --    0.02480   0.02571   0.03555   0.03670   0.04198
 Alpha virt. eigenvalues --    0.04632   0.04881   0.05568   0.05773   0.06943

 Mulliken charges:
               1
     1  C    0.102545
     2  C   -0.579615
     3  C   -0.316229
     4  C    0.038888
     5  C   -0.205182
     6  C   -0.289490
     7  C   -0.300956
     8  C   -0.197003
     9  O   -0.331974
    10  C   -0.357656
    11  O   -0.271697
    12  C   -0.311440
    13  O   -0.290050
    14  H    0.238222
    15  H    0.163662
    16  H    0.152490
    17  H    0.231491
    18  H    0.216136
    19  H    0.129312
    20  H    0.158714
    21  H    0.192410
    22  H    0.162763
    23  H    0.221022
    24  H    0.195978
    25  H    0.184059
    26  H    0.138740
    27  H    0.210246
    28  H    0.175683
    29  H    0.165095
    30  H    0.194998
    31  H    0.178837
 Sum of Mulliken charges =  -0.00000

 Dipole moment (field-independent basis, Debye):
    X=             -1.9240    Y=              1.3633    Z=              1.2087  Tot=              2.6498
 Quadrupole moment (field-independent basis, Debye-Ang):
   XX=            -77.4948   YY=            -78.1660   ZZ=            -81.7300
   XY=              6.8001   XZ=              1.5055   YZ=              2.1328

  Exact polarizability: 176.666   1.988 161.453  -0.166   1.201 147.736
 Approx polarizability: 146.007   0.919 143.564  -0.644   0.686 142.603

                      1                      2                      3
                      A                      A                      A
 Frequencies --     40.2009                55.7035                84.4416
 Red. masses --      3.4147                 4.0626                 3.5122
 Frc consts  --      0.0033                 0.0074                 0.0148
 IR Inten    --      0.4183                 1.0406                 1.1734

                      4                      5                      6
                      A                      A                      A
 Frequencies --    113.6553               198.2020               205.6856
 Red. masses --      2.9804                 2.4785                 2.1086
 Frc consts  --      0.0227                 0.0574                 0.0526
 IR Inten    --      4.0062                 0.8299                 1.3547

                      7                      8                      9
                      A                      A                      A
 Frequencies --    245.9000               267.8531               295.8679
 Red. masses --      2.0583                 4.1235                 2.4298
 Frc consts  --      0.0733                 0.1743                 0.1253
 IR Inten    --      4.8045                 0.8589                 3.1595

                     10                     11                     12
                      A                      A                      A
 Frequencies --    348.1260               383.4239               440.0607
 Red. masses --      3.5248                 2.3333                 3.8937
 Frc consts  --      0.2517                 0.2021                 0.4443
 IR Inten    --     24.3773                10.7485                 3.4222

                     13                     14                     15
                      A                      A                      A
 Frequencies --    447.9352               477.2036               508.3376
 Red. masses --      2.5668                 3.2735                 2.6569
 Frc consts  --      0.3034                 0.4392                 0.4045
 IR Inten    --      5.7311                 1.0428                 5.9986

                     16                     17                     18
                      A                      A                      A
 Frequencies --    547.2114               617.6830               636.0592
 Red. masses --      3.5365                 2.6180                 1.9946
 Frc consts  --      0.6239                 0.5885                 0.4755
 IR Inten    --      1.0795                13.1538                 5.4306

                     19                     20                     21
                      A                      A                      A
 Frequencies --    659.6331               785.3171               831.7895
 Red. masses --      4.3148                 1.3007                 2.2284
 Frc consts  --      1.1062                 0.4726                 0.9084
 IR Inten    --      9.0110                 6.0739                 0.8879

                     22                     23                     24
                      A                      A                      A
 Frequencies --    841.9311               877.0813               894.2581
 Red. masses --      2.5803                 1.3946                 2.5935
 Frc consts  --      1.0777                 0.6321                 1.2220
 IR Inten    --      7.7939                12.5444                10.1492

                     25                     26                     27
                      A                      A                      A
 Frequencies --    900.2099               922.9961               942.4534
 Red. masses --      2.3513                 2.1421                 2.2812
 Frc consts  --      1.1226                 1.0752                 1.1938
 IR Inten    --      8.4694                36.1846                51.7004

                     28                     29                     30
                      A                      A                      A
 Frequencies --    967.2318               986.8556               995.8130
 Red. masses --      1.8123                 2.2387                 1.4660
 Frc consts  --      0.9989                 1.2846                 0.8565
 IR Inten    --     12.9497                35.2290                 3.6961

                     31                     32                     33
                      A                      A                      A
 Frequencies --   1008.0818              1054.2152              1071.7635
 Red. masses --      2.0107                 1.6855                 1.9403
 Frc consts  --      1.2039                 1.1036                 1.3132
 IR Inten    --      6.6308                 7.6115               186.1133

                     34                     35                     36
                      A                      A                      A
 Frequencies --   1081.0337              1083.6157              1111.7437
 Red. masses --      3.1098                 2.5317                 4.2284
 Frc consts  --      2.1412                 1.7515                 3.0792
 IR Inten    --     84.5931                 8.7182               273.1196

                     37                     38                     39
                      A                      A                      A
 Frequencies --   1150.2369              1155.5487              1158.7652
 Red. masses --      2.7055                 2.5641                 3.7182
 Frc consts  --      2.1089                 2.0173                 2.9415
 IR Inten    --     35.2836                46.0091               296.7559

                     40                     41                     42
                      A                      A                      A
 Frequencies --   1169.4777              1192.2090              1210.0296
 Red. masses --      2.3205                 2.2037                 1.4678
 Frc consts  --      1.8699                 1.8455                 1.2662
 IR Inten    --     18.5666                46.5938                14.3129

                     43                     44                     45
                      A                      A                      A
 Frequencies --   1221.4261              1244.5268              1248.4057
 Red. masses --      1.5377                 1.6688                 1.4939
 Frc consts  --      1.3516                 1.5228                 1.3718
 IR Inten    --      7.7390                51.3853                26.8564

                     46                     47                     48
                      A                      A                      A
 Frequencies --   1290.9329              1304.4133              1309.4587
 Red. masses --      1.2014                 1.1887                 1.1785
 Frc consts  --      1.1796                 1.1917                 1.1906
 IR Inten    --      2.7900                23.4745                 9.7020

                     49                     50                     51
                      A                      A                      A
 Frequencies --   1329.4291              1338.7181              1344.1107
 Red. masses --      1.3052                 1.2363                 1.2719
 Frc consts  --      1.3592                 1.3054                 1.3538
 IR Inten    --      8.9478                 5.7454                 8.4019

                     52                     53                     54
                      A                      A                      A
 Frequencies --   1356.8872              1367.3269              1372.6581
 Red. masses --      1.2659                 1.4285                 1.3749
 Frc consts  --      1.3732                 1.5736                 1.5263
 IR Inten    --     13.2074                 1.7511                 1.3529

                     55                     56                     57
                      A                      A                      A
 Frequencies --   1382.9262              1390.5734              1399.9194
 Red. masses --      1.4431                 1.5049                 1.3370
 Frc consts  --      1.6261                 1.7145                 1.5438
 IR Inten    --      5.7397                22.4740                31.5045

                     58                     59                     60
                      A                      A                      A
 Frequencies --   1406.9429              1419.5897              1429.5916
 Red. masses --      1.3745                 1.4050                 1.3498
 Frc consts  --      1.6030                 1.6682                 1.6253
 IR Inten    --     12.8352                 4.8346                21.4248

                     61                     62                     63
                      A                      A                      A
 Frequencies --   1443.7219              1480.9864              1488.4808
 Red. masses --      1.4585                 1.0908                 1.0788
 Frc consts  --      1.7911                 1.4096                 1.4082
 IR Inten    --      4.6026                 8.0150                 2.8578

                     64                     65                     66
                      A                      A                      A
 Frequencies --   1493.9491              1494.8947              1501.2631
 Red. masses --      1.0955                 1.1107                 1.0872
 Frc consts  --      1.4406                 1.4624                 1.4436
 IR Inten    --      9.8369                 9.3497                 0.7149

                     67                     68                     69
                      A                      A                      A
 Frequencies --   1503.8793              1513.4739              1523.4773
 Red. masses --      1.0988                 1.1018                 1.0868
 Frc consts  --      1.4642                 1.4869                 1.4861
 IR Inten    --     10.1831                 9.1131                 3.7121

                     70                     71                     72
                      A                      A                      A
 Frequencies --   3016.3526              3019.2931              3048.0975
 Red. masses --      1.0693                 1.0703                 1.0789
 Frc consts  --      5.7322                 5.7489                 5.9061
 IR Inten    --     32.6626                98.9559                 8.3020

                     73                     74                     75
                      A                      A                      A
 Frequencies --   3058.7529              3060.3307              3063.0062
 Red. masses --      1.0741                 1.0738                 1.0775
 Frc consts  --      5.9211                 5.9251                 5.9559
 IR Inten    --     11.2863               121.2230                21.2776

                     76                     77                     78
                      A                      A                      A
 Frequencies --   3069.4191              3075.7128              3078.9132
 Red. masses --      1.0621                 1.0669                 1.0617
 Frc consts  --      5.8954                 5.9467                 5.9298
 IR Inten    --     56.1906                10.1493                47.1352

                     79                     80                     81
                      A                      A                      A
 Frequencies --   3082.7714              3117.6649              3118.3508
 Red. masses --      1.0634                 1.0992                 1.1000
 Frc consts  --      5.9541                 6.2947                 6.3020
 IR Inten    --     44.1473                35.1178                42.7245

                     82                     83                     84
                      A                      A                      A
 Frequencies --   3126.1105              3129.9679              3131.4432
 Red. masses --      1.0983                 1.0947                 1.1019
 Frc consts  --      6.3237                 6.3188                 6.3662
 IR Inten    --     39.1866                49.0958                40.9777

                     85                     86                     87
                      A                      A                      A
 Frequencies --   3132.5977              3135.7074              3143.5807
 Red. masses --      1.0959                 1.1001                 1.1005
 Frc consts  --      6.3363                 6.3731                 6.4074
 IR Inten    --     39.0339                49.9004                44.0816

 - Thermochemistry -
 -------------------
 Temperature   298.150 Kelvin.  Pressure   1.00000 Atm.
 Atom     1 has atomic number  6 and mass  12.00000

 Molecular mass:   186.12559 amu.
 Principal axes and moments of inertia in atomic units:
                           1         2         3
     Eigenvalues --   837.961794552.443225105.52088
           X            0.99995   0.00950   0.00051
           Y           -0.00951   0.99989   0.01098
           Z           -0.00040  -0.01099   0.99994
 This molecule is an asymmetric top.
 Rotational symmetry number  1.
 Warning -- assumption of classical behavior for rotation
           may cause significant error
 Rotational temperatures (Kelvin)      0.10336     0.01903     0.01696
 Rotational constants (GHZ):           2.15373     0.39643     0.35349
 Zero-point vibrational energy     736755.4 (Joules/Mol)
                                  176.08876 (Kcal/Mol)
 Warning -- explicit consideration of  17 degrees of freedom as
           vibrations may cause significant error
 Vibrational temperatures:     57.84    80.14   121.49   163.52   285.17
          (Kelvin)            295.94   353.80   385.38   425.69   500.88
                              551.66   633.15   644.48   686.59   731.38
                              787.32   888.71   915.15   949.06  1129.90
                             1196.76  1211.35  1261.92  1286.64  1295.20
                             1327.99  1355.98  1391.63  1419.87  1432.75
                             1450.40  1516.78  1542.03  1555.37  1559.08
                             1599.55  1654.93  1662.58  1667.20  1682.62
                             1715.32  1740.96  1757.36  1790.60  1796.18
                             1857.36  1876.76  1884.02  1912.75  1926.12
                             1933.88  1952.26  1967.28  1974.95  1989.72
                             2000.72  2014.17  2024.28  2042.47  2056.86
                             2077.19  2130.81  2141.59  2149.46  2150.82
                             2159.98  2163.75  2177.55  2191.94  4339.86
                             4344.09  4385.53  4400.86  4403.13  4406.98
                             4416.21  4425.26  4429.87  4435.42  4485.62
                             4486.61  4497.78  4503.33  4505.45  4507.11
                             4511.58  4522.91

 Zero-point correction=                           0.280615 (Hartree/Particle)
 Thermal correction to Energy=                    0.292499
 Thermal correction to Enthalpy=                  0.293444
 Thermal correction to Gibbs Free Energy=         0.241890
 Sum of electronic and zero-point Energies=           -617.218141
 Sum of electronic and thermal Energies=              -617.206257
 Sum of electronic and thermal Enthalpies=            -617.205313
 Sum of electronic and thermal Free Energies=         -617.256867

                     E (Thermal)             CV                S
                      KCal/Mol        Cal/Mol-Kelvin    Cal/Mol-Kelvin
 Total                  183.546             46.797            108.504
 Electronic               0.000              0.000              0.000
 Translational            0.889              2.981             41.570
 Rotational               0.889              2.981             31.344
 Vibrational            181.769             40.836             35.590
 Vibration     1          0.594              1.981              5.249
 Vibration     2          0.596              1.975              4.604
 Vibration     3          0.601              1.960              3.785
 Vibration     4          0.607              1.938              3.206
 Vibration     5          0.637              1.842              2.150
 Vibration     6          0.640              1.832              2.082
 Vibration     7          0.660              1.770              1.760
 Vibration     8          0.673              1.732              1.610
 Vibration     9          0.690              1.681              1.440
 Vibration    10          0.726              1.579              1.175
 Vibration    11          0.753              1.506              1.026
 Vibration    12          0.800              1.383              0.826
 Vibration    13          0.807              1.365              0.802
 Vibration    14          0.834              1.301              0.718
 Vibration    15          0.864              1.232              0.638
 Vibration    16          0.902              1.146              0.550
 Vibration    17          0.977              0.995              0.420

 Optimization completed.
    -- Stationary point found.
 Normal termination of Gaussian 16 at Mon Nov  5 01:16:37 2018.
