 Gaussian 16, Revision A.03,
 Gaussian 16:  ES64L-G16RevA.03 25-Dec-2016

 ----------------------------------------------------------------------
 #M062X/6-311++G(2d,2p) opt=ModRedundant freq=noraman SCRF=(Solvent=Wat
 er)
 ----------------------------------------------------------------------

 -----------------------------
 2SO_1_e4_D_PHI.inp_extract_12
 -----------------------------
 Symbolic Z-matrix:
 Charge =  0 Multiplicity = 1

 SCF Done:  E(RM062X) =  -617.487702733     A.U. after   12 cycles
 SCF Done:  E(RM062X) =  -617.488837167     A.U. after   11 cycles
 SCF Done:  E(RM062X) =  -617.489170812     A.U. after   10 cycles
 SCF Done:  E(RM062X) =  -617.489373820     A.U. after    9 cycles
 SCF Done:  E(RM062X) =  -617.489406596     A.U. after    9 cycles
 SCF Done:  E(RM062X) =  -617.489419974     A.U. after    9 cycles
 SCF Done:  E(RM062X) =  -617.489423491     A.U. after    8 cycles
 SCF Done:  E(RM062X) =  -617.489426137     A.U. after    8 cycles
 SCF Done:  E(RM062X) =  -617.489426320     A.U. after    7 cycles
 Optimization completed.
    -- Stationary point found.
 Normal termination of Gaussian 16 at Mon Nov  5 00:14:18 2018.

 ----------------------------------------------------------------------
 #N Geom=AllCheck Guess=TCheck SCRF=Check GenChk RM062X/6-311++G(2d,2p)
  Freq
 ----------------------------------------------------------------------

 Structure from the checkpoint file:  "2SO_1_e4_D_PHI.inp_extract_12.chk"
 -----------------------------
 2SO_1_e4_D_PHI.inp_extract_12
 -----------------------------
 Charge =  0 Multiplicity = 1

                         Standard orientation:
 ---------------------------------------------------------------------
 Center     Atomic      Atomic             Coordinates (Angstroms)
 Number     Number       Type             X           Y           Z
 ---------------------------------------------------------------------
      1          6           0        0.947190   -0.142688    0.167437
      2          6           0       -3.404981    0.012493   -1.112172
      3          6           0       -1.370063   -0.039796    1.038275
      4          6           0       -2.477778   -1.150144   -0.743030
      5          6           0       -3.104188    1.216205   -0.205595
      6          6           0        1.657628    1.169276    0.472941
      7          6           0        1.953094   -1.288789    0.196128
      8          6           0        3.741743    0.106699   -0.407586
      9          8           0        3.008112   -1.071107   -0.719411
     10          6           0        2.852820    1.337742   -0.466647
     11          8           0       -0.029563   -0.472765    1.145210
     12          6           0       -1.626998    1.202007    0.183456
     13          8           0       -2.189753   -1.124598    0.651967
     14          1           0        0.514834   -0.113284   -0.835516
     15          1           0       -4.446828   -0.286945   -1.007324
     16          1           0       -3.243901    0.274016   -2.158814
     17          1           0       -1.673495    0.167014    2.064550
     18          1           0       -2.938093   -2.113765   -0.945219
     19          1           0       -1.545599   -1.105489   -1.312248
     20          1           0       -3.709435    1.159327    0.700285
     21          1           0       -3.358759    2.149587   -0.703557
     22          1           0        0.973736    2.012391    0.387200
     23          1           0        2.002309    1.127317    1.510037
     24          1           0        1.466227   -2.220585   -0.085098
     25          1           0        2.347909   -1.390313    1.214831
     26          1           0        4.177953    0.004504    0.593604
     27          1           0        4.550477    0.163387   -1.132854
     28          1           0        3.431781    2.220883   -0.196362
     29          1           0        2.504380    1.473675   -1.492863
     30          1           0       -1.021628    1.204925   -0.722611
     31          1           0       -1.353025    2.083079    0.760585
 ---------------------------------------------------------------------

 SCF Done:  E(RM062X) =  -617.489426320     A.U. after    1 cycles

 The electronic state is 1-A.
 Alpha  occ. eigenvalues --  -19.63225 -19.63185 -19.62917 -10.63971 -10.59011
 Alpha  occ. eigenvalues --  -10.58117 -10.58090 -10.58090 -10.53787 -10.53448
 Alpha  occ. eigenvalues --  -10.53331 -10.53203 -10.53036  -1.19640  -1.16737
 Alpha  occ. eigenvalues --   -1.13664  -0.90579  -0.90365  -0.87541  -0.84470
 Alpha  occ. eigenvalues --   -0.75085  -0.74949  -0.73499  -0.70005  -0.66032
 Alpha  occ. eigenvalues --   -0.62793  -0.60416  -0.59222  -0.57815  -0.57156
 Alpha  occ. eigenvalues --   -0.54648  -0.53158  -0.52114  -0.51202  -0.49692
 Alpha  occ. eigenvalues --   -0.48248  -0.47271  -0.45984  -0.45170  -0.44931
 Alpha  occ. eigenvalues --   -0.44399  -0.41392  -0.41046  -0.40856  -0.40360
 Alpha  occ. eigenvalues --   -0.38628  -0.37567  -0.36203  -0.35108  -0.33626
 Alpha  occ. eigenvalues --   -0.32193
 Alpha virt. eigenvalues --   -0.00199   0.00724   0.00838   0.01086   0.02190
 Alpha virt. eigenvalues --    0.02571   0.02631   0.03307   0.03837   0.04534
 Alpha virt. eigenvalues --    0.04661   0.04860   0.05538   0.05968   0.07106

 Mulliken charges:
               1
     1  C   -0.197540
     2  C   -0.360768
     3  C   -0.215245
     4  C   -0.119413
     5  C   -0.346670
     6  C   -0.160661
     7  C   -0.282017
     8  C   -0.213922
     9  O   -0.312850
    10  C   -0.367042
    11  O   -0.285096
    12  C   -0.248633
    13  O   -0.288178
    14  H    0.273071
    15  H    0.164987
    16  H    0.155577
    17  H    0.263294
    18  H    0.202825
    19  H    0.115642
    20  H    0.171092
    21  H    0.175108
    22  H    0.168258
    23  H    0.218163
    24  H    0.193091
    25  H    0.191918
    26  H    0.147143
    27  H    0.200371
    28  H    0.175848
    29  H    0.165838
    30  H    0.218214
    31  H    0.197593
 Sum of Mulliken charges =  -0.00000

 Dipole moment (field-independent basis, Debye):
    X=             -0.4605    Y=              4.0814    Z=             -1.5950  Tot=              4.4061
 Quadrupole moment (field-independent basis, Debye-Ang):
   XX=            -76.9182   YY=            -81.6354   ZZ=            -82.1258
   XY=              2.7393   XZ=              6.7181   YZ=              1.9890

  Exact polarizability: 175.613   2.223 157.308   0.875   1.079 152.105
 Approx polarizability: 147.407   2.502 141.058  -0.477   0.518 144.042

 ******    1 imaginary frequencies (negative Signs) ******

                      1                      2                      3
                      A                      A                      A
 Frequencies --    -40.6892                52.4591                75.1160
 Red. masses --      4.7363                 3.6564                 3.2681
 Frc consts  --      0.0046                 0.0059                 0.0109
 IR Inten    --      1.1449                 1.7916                 0.8096

                      4                      5                      6
                      A                      A                      A
 Frequencies --    114.1571               195.7702               221.4585
 Red. masses --      2.8451                 2.3279                 2.3378
 Frc consts  --      0.0218                 0.0526                 0.0676
 IR Inten    --      0.3435                 0.4584                 1.9506

                      7                      8                      9
                      A                      A                      A
 Frequencies --    248.6950               262.3947               298.6505
 Red. masses --      2.0974                 2.3956                 4.1560
 Frc consts  --      0.0764                 0.0972                 0.2184
 IR Inten    --      4.3430                 3.6681                 7.7022

                     10                     11                     12
                      A                      A                      A
 Frequencies --    354.9073               391.4205               433.3476
 Red. masses --      2.8588                 2.5779                 2.8603
 Frc consts  --      0.2122                 0.2327                 0.3165
 IR Inten    --      9.3830                 7.8525                 8.2675

                     13                     14                     15
                      A                      A                      A
 Frequencies --    454.1447               474.2136               506.8121
 Red. masses --      3.2595                 3.0578                 3.0903
 Frc consts  --      0.3961                 0.4051                 0.4677
 IR Inten    --      4.9326                 0.0944                 0.9637

                     16                     17                     18
                      A                      A                      A
 Frequencies --    519.1943               596.1427               627.0346
 Red. masses --      4.9498                 2.1664                 1.9476
 Frc consts  --      0.7861                 0.4536                 0.4512
 IR Inten    --      6.8687                17.8064                 8.1777

                     19                     20                     21
                      A                      A                      A
 Frequencies --    670.8034               779.5762               827.2292
 Red. masses --      4.2750                 1.3162                 2.1815
 Frc consts  --      1.1334                 0.4713                 0.8795
 IR Inten    --     12.1337                 3.8723                 4.8617

                     22                     23                     24
                      A                      A                      A
 Frequencies --    837.4801               874.3765               888.2576
 Red. masses --      2.5479                 1.4028                 2.8229
 Frc consts  --      1.0529                 0.6319                 1.3123
 IR Inten    --     13.1583                13.3997                 8.6634

                     25                     26                     27
                      A                      A                      A
 Frequencies --    898.9846               919.1554               942.9826
 Red. masses --      2.4431                 2.1771                 2.2358
 Frc consts  --      1.1633                 1.0837                 1.1713
 IR Inten    --     21.8070                39.2328                46.1730

                     28                     29                     30
                      A                      A                      A
 Frequencies --    957.9817               986.2013               999.6432
 Red. masses --      2.0216                 2.1161                 1.5560
 Frc consts  --      1.0931                 1.2126                 0.9161
 IR Inten    --     22.5041                29.0403                18.8703

                     31                     32                     33
                      A                      A                      A
 Frequencies --   1007.9037              1051.3587              1061.4970
 Red. masses --      1.8227                 2.4514                 2.0206
 Frc consts  --      1.0909                 1.5965                 1.3414
 IR Inten    --     12.2012                13.6986                20.4359

                     34                     35                     36
                      A                      A                      A
 Frequencies --   1071.9049              1080.3507              1101.4459
 Red. masses --      2.0420                 2.2420                 3.7644
 Frc consts  --      1.3823                 1.5418                 2.6908
 IR Inten    --    228.2275                58.4134               283.9183

                     37                     38                     39
                      A                      A                      A
 Frequencies --   1145.1865              1151.4261              1167.0100
 Red. masses --      2.4273                 2.9397                 2.7590
 Frc consts  --      1.8755                 2.2963                 2.2139
 IR Inten    --     22.2861                93.0938                77.8956

                     40                     41                     42
                      A                      A                      A
 Frequencies --   1174.8593              1193.4894              1210.5875
 Red. masses --      2.6086                 2.7329                 1.5114
 Frc consts  --      2.1215                 2.2935                 1.3051
 IR Inten    --     99.8654               107.3615                12.7195

                     43                     44                     45
                      A                      A                      A
 Frequencies --   1220.2404              1243.9416              1251.0959
 Red. masses --      1.4663                 1.6125                 1.5169
 Frc consts  --      1.2864                 1.4701                 1.3989
 IR Inten    --     20.3362                63.4001                17.3539

                     46                     47                     48
                      A                      A                      A
 Frequencies --   1293.5371              1303.1563              1308.3434
 Red. masses --      1.1877                 1.1691                 1.2250
 Frc consts  --      1.1709                 1.1697                 1.2355
 IR Inten    --     10.1730                24.4771                 2.8599

                     49                     50                     51
                      A                      A                      A
 Frequencies --   1330.6216              1343.2944              1351.2019
 Red. masses --      1.2821                 1.2586                 1.3048
 Frc consts  --      1.3375                 1.3381                 1.4036
 IR Inten    --      9.0715                 2.8425                 2.2107

                     52                     53                     54
                      A                      A                      A
 Frequencies --   1355.3731              1367.3515              1378.0161
 Red. masses --      1.2363                 1.4516                 1.3924
 Frc consts  --      1.3381                 1.5990                 1.5578
 IR Inten    --     14.4538                 4.9733                12.6661

                     55                     56                     57
                      A                      A                      A
 Frequencies --   1383.2636              1392.0635              1405.2273
 Red. masses --      1.4339                 1.3884                 1.3058
 Frc consts  --      1.6165                 1.5852                 1.5193
 IR Inten    --      9.1472                13.6466                 1.1316

                     58                     59                     60
                      A                      A                      A
 Frequencies --   1412.5145              1425.9384              1431.0787
 Red. masses --      1.3892                 1.4402                 1.3533
 Frc consts  --      1.6330                 1.7253                 1.6329
 IR Inten    --     12.7446                34.1362                 3.2942

                     61                     62                     63
                      A                      A                      A
 Frequencies --   1435.9243              1481.9572              1488.1140
 Red. masses --      1.2791                 1.0907                 1.0795
 Frc consts  --      1.5539                 1.4114                 1.4085
 IR Inten    --      5.4792                 6.7199                 2.7270

                     64                     65                     66
                      A                      A                      A
 Frequencies --   1493.4517              1500.4519              1501.9377
 Red. masses --      1.1084                 1.0918                 1.0930
 Frc consts  --      1.4565                 1.4483                 1.4527
 IR Inten    --     15.5670                 2.1263                 3.1422

                     67                     68                     69
                      A                      A                      A
 Frequencies --   1505.1670              1514.4504              1528.3622
 Red. masses --      1.0998                 1.1013                 1.0874
 Frc consts  --      1.4681                 1.4883                 1.4966
 IR Inten    --      7.0887                 9.4233                 5.4976

                     70                     71                     72
                      A                      A                      A
 Frequencies --   3019.4213              3021.6191              3055.8646
 Red. masses --      1.0697                 1.0695                 1.0718
 Frc consts  --      5.7459                 5.7532                 5.8968
 IR Inten    --     33.6752                99.2811                48.0452

                     73                     74                     75
                      A                      A                      A
 Frequencies --   3059.0248              3068.8840              3072.8452
 Red. masses --      1.0693                 1.0690                 1.0720
 Frc consts  --      5.8953                 5.9317                 5.9637
 IR Inten    --      2.3544                12.6122               102.6078

                     76                     77                     78
                      A                      A                      A
 Frequencies --   3078.2405              3081.5930              3094.3150
 Red. masses --      1.0618                 1.0665                 1.0866
 Frc consts  --      5.9280                 5.9669                 6.1298
 IR Inten    --     30.7320                38.2943                29.7268

                     79                     80                     81
                      A                      A                      A
 Frequencies --   3099.4868              3119.1213              3120.1926
 Red. masses --      1.0618                 1.0992                 1.1002
 Frc consts  --      6.0097                 6.3010                 6.3107
 IR Inten    --     39.1344                29.1620                46.2518

                     82                     83                     84
                      A                      A                      A
 Frequencies --   3130.0297              3132.3483              3133.8902
 Red. masses --      1.0969                 1.0954                 1.1005
 Frc consts  --      6.3314                 6.3322                 6.3683
 IR Inten    --     31.0011                50.0817                32.8388

                     85                     86                     87
                      A                      A                      A
 Frequencies --   3135.4647              3143.0371              3146.4162
 Red. masses --      1.0960                 1.0998                 1.1025
 Frc consts  --      6.3483                 6.4011                 6.4305
 IR Inten    --     45.6252                63.0196                40.5764

 - Thermochemistry -
 -------------------
 Temperature   298.150 Kelvin.  Pressure   1.00000 Atm.
 Atom     1 has atomic number  6 and mass  12.00000

 Molecular mass:   186.12559 amu.
 Principal axes and moments of inertia in atomic units:
                           1         2         3
     Eigenvalues --  1038.988414300.569624606.88761
           X            0.99994   0.00207   0.01089
           Y           -0.00228   0.99981   0.01921
           Z           -0.01084  -0.01923   0.99976
 This molecule is an asymmetric top.
 Rotational symmetry number  1.
 Warning -- assumption of classical behavior for rotation
           may cause significant error
 Rotational temperatures (Kelvin)      0.08336     0.02014     0.01880
 Rotational constants (GHZ):           1.73702     0.41965     0.39175
    1 imaginary frequencies ignored.
 Zero-point vibrational energy     736800.8 (Joules/Mol)
                                  176.09963 (Kcal/Mol)
 Warning -- explicit consideration of  16 degrees of freedom as
           vibrations may cause significant error
 Vibrational temperatures:     75.48   108.08   164.25   281.67   318.63
          (Kelvin)            357.82   377.53   429.69   510.63   563.17
                              623.49   653.41   682.29   729.19   747.00
                              857.72   902.16   965.14  1121.64  1190.20
                             1204.95  1258.03  1278.00  1293.44  1322.46
                             1356.74  1378.32  1418.92  1438.26  1450.15
                             1512.67  1527.26  1542.23  1554.38  1584.73
                             1647.67  1656.65  1679.07  1690.36  1717.17
                             1741.77  1755.65  1789.75  1800.05  1861.11
                             1874.95  1882.41  1914.47  1932.70  1944.08
                             1950.08  1967.31  1982.66  1990.21  2002.87
                             2021.81  2032.29  2051.61  2059.00  2065.97
                             2132.21  2141.06  2148.74  2158.82  2160.95
                             2165.60  2178.96  2198.97  4344.27  4347.44
                             4396.71  4401.25  4415.44  4421.14  4428.90
                             4433.72  4452.03  4459.47  4487.72  4489.26
                             4503.41  4506.75  4508.97  4511.23  4522.13
                             4526.99

 Zero-point correction=                           0.280633 (Hartree/Particle)
 Thermal correction to Energy=                    0.291694
 Thermal correction to Enthalpy=                  0.292638
 Thermal correction to Gibbs Free Energy=         0.243407
 Sum of electronic and zero-point Energies=           -617.208794
 Sum of electronic and thermal Energies=              -617.197732
 Sum of electronic and thermal Enthalpies=            -617.196788
 Sum of electronic and thermal Free Energies=         -617.246019

                     E (Thermal)             CV                S
                      KCal/Mol        Cal/Mol-Kelvin    Cal/Mol-Kelvin
 Total                  183.041             44.948            103.615
 Electronic               0.000              0.000              0.000
 Translational            0.889              2.981             41.570
 Rotational               0.889              2.981             31.399
 Vibrational            181.263             38.986             30.647
 Vibration     1          0.596              1.977              4.722
 Vibration     2          0.599              1.966              4.015
 Vibration     3          0.607              1.938              3.197
 Vibration     4          0.636              1.846              2.172
 Vibration     5          0.648              1.808              1.947
 Vibration     6          0.662              1.765              1.740
 Vibration     7          0.670              1.742              1.646
 Vibration     8          0.692              1.676              1.424
 Vibration     9          0.731              1.565              1.144
 Vibration    10          0.759              1.489              0.995
 Vibration    11          0.794              1.398              0.848
 Vibration    12          0.813              1.352              0.783
 Vibration    13          0.831              1.307              0.726
 Vibration    14          0.862              1.235              0.641
 Vibration    15          0.874              1.207              0.612
 Vibration    16          0.954              1.040              0.456

 Optimization completed.
    -- Stationary point found.
 Normal termination of Gaussian 16 at Mon Nov  5 01:06:09 2018.
