 Gaussian 16, Revision A.03,
 Gaussian 16:  ES64L-G16RevA.03 25-Dec-2016

 ----------------------------------------------------------------------
 #M062X/6-311++G(2d,2p) opt=ModRedundant freq=noraman SCRF=(Solvent=Wat
 er)
 ----------------------------------------------------------------------

 ----------------------------
 D_1a_4e_D_PSI.inp_extract_20
 ----------------------------
 Symbolic Z-matrix:
 Charge =  0 Multiplicity = 1

 SCF Done:  E(RM062X) =  -617.496061885     A.U. after   12 cycles
 SCF Done:  E(RM062X) =  -617.497796796     A.U. after   11 cycles
 SCF Done:  E(RM062X) =  -617.498179125     A.U. after   11 cycles
 SCF Done:  E(RM062X) =  -617.498320837     A.U. after   10 cycles
 SCF Done:  E(RM062X) =  -617.498342174     A.U. after   10 cycles
 SCF Done:  E(RM062X) =  -617.498345221     A.U. after    8 cycles
 Optimization completed.
    -- Stationary point found.
 Normal termination of Gaussian 16 at Sun Nov  4 21:57:53 2018.

 ----------------------------------------------------------------------
 #N Geom=AllCheck Guess=TCheck SCRF=Check GenChk RM062X/6-311++G(2d,2p)
  Freq
 ----------------------------------------------------------------------

 Structure from the checkpoint file:  "D_1a_4e_D_PSI.inp_extract_20.chk"
 ----------------------------
 D_1a_4e_D_PSI.inp_extract_20
 ----------------------------
 Charge =  0 Multiplicity = 1

                         Standard orientation:
 ---------------------------------------------------------------------
 Center     Atomic      Atomic             Coordinates (Angstroms)
 Number     Number       Type             X           Y           Z
 ---------------------------------------------------------------------
      1          6           0        3.275146    1.021205   -0.353171
      2          6           0        1.151275   -0.921045   -0.191400
      3          6           0       -1.053288   -0.410890    0.727665
      4          6           0        3.276379    0.007110    0.788848
      5          8           0       -3.038336   -0.987246   -0.500647
      6          6           0       -3.482597    0.362989   -0.548680
      7          6           0        1.847642    1.270625   -0.808427
      8          6           0       -1.491067    1.046351    0.778299
      9          6           0       -1.625272   -1.087941   -0.518739
     10          6           0       -3.012153    1.135600    0.672194
     11          8           0        1.203071    0.060159   -1.208651
     12          8           0        0.364717   -0.497120    0.890371
     13          6           0        2.536041   -1.252272    0.343942
     14          1           0        3.857700    0.635054   -1.193120
     15          1           0        3.723890    1.965633   -0.043912
     16          1           0       -1.482689   -0.930073    1.589299
     17          1           0        4.294061   -0.242753    1.086737
     18          1           0        2.778428    0.438343    1.659555
     19          1           0       -4.568206    0.322956   -0.604293
     20          1           0       -3.104061    0.834880   -1.463546
     21          1           0        1.275783    1.736829   -0.001476
     22          1           0        1.810105    1.922613   -1.678299
     23          1           0       -1.031226    1.573312   -0.062863
     24          1           0       -1.126019    1.503758    1.697889
     25          1           0       -3.475509    0.705857    1.562899
     26          1           0       -3.336370    2.173735    0.598687
     27          1           0        3.089300   -1.736578   -0.462849
     28          1           0        2.433676   -1.969760    1.156823
     29          1           0        0.715688   -1.794256   -0.674699
     30          1           0       -1.224903   -0.624263   -1.426634
     31          1           0       -1.397904   -2.152024   -0.531968
 ---------------------------------------------------------------------

 SCF Done:  E(RM062X) =  -617.498345221     A.U. after    1 cycles

 The electronic state is 1-A.
 Alpha  occ. eigenvalues --  -19.63259 -19.63169 -19.62904 -10.63596 -10.58910
 Alpha  occ. eigenvalues --  -10.58346 -10.58074 -10.57702 -10.53216 -10.53078
 Alpha  occ. eigenvalues --  -10.53056 -10.52981 -10.52840  -1.19851  -1.16708
 Alpha  occ. eigenvalues --   -1.13224  -0.91043  -0.89762  -0.87087  -0.84847
 Alpha  occ. eigenvalues --   -0.75233  -0.74148  -0.72751  -0.70703  -0.66672
 Alpha  occ. eigenvalues --   -0.62813  -0.60332  -0.58703  -0.57153  -0.55848
 Alpha  occ. eigenvalues --   -0.53995  -0.53350  -0.51416  -0.50976  -0.49528
 Alpha  occ. eigenvalues --   -0.49268  -0.47138  -0.45988  -0.45632  -0.44946
 Alpha  occ. eigenvalues --   -0.44017  -0.41970  -0.41452  -0.40065  -0.39952
 Alpha  occ. eigenvalues --   -0.38324  -0.38048  -0.36494  -0.34196  -0.33198
 Alpha  occ. eigenvalues --   -0.32236
 Alpha virt. eigenvalues --   -0.00093   0.00756   0.00882   0.00973   0.02201
 Alpha virt. eigenvalues --    0.02530   0.02648   0.03271   0.03536   0.04396
 Alpha virt. eigenvalues --    0.04861   0.04944   0.05525   0.05921   0.07035

 Mulliken charges:
               1
     1  C   -0.418360
     2  C   -0.061172
     3  C    0.038924
     4  C   -0.292724
     5  O   -0.352680
     6  C   -0.164220
     7  C   -0.091623
     8  C   -0.227801
     9  C   -0.389277
    10  C   -0.389919
    11  O   -0.281553
    12  O   -0.325257
    13  C   -0.481492
    14  H    0.161740
    15  H    0.174546
    16  H    0.252354
    17  H    0.188096
    18  H    0.177042
    19  H    0.218655
    20  H    0.134400
    21  H    0.119949
    22  H    0.211398
    23  H    0.181963
    24  H    0.190499
    25  H    0.174492
    26  H    0.165415
    27  H    0.195576
    28  H    0.186161
    29  H    0.259122
    30  H    0.248661
    31  H    0.197085
 Sum of Mulliken charges =  -0.00000

 Dipole moment (field-independent basis, Debye):
    X=              1.2219    Y=              1.7062    Z=              0.4663  Tot=              2.1498
 Quadrupole moment (field-independent basis, Debye-Ang):
   XX=            -77.3281   YY=            -76.7877   ZZ=            -83.7593
   XY=             -6.1135   XZ=             -1.1322   YZ=             -0.6986

  Exact polarizability: 174.530  -2.076 158.800  -0.568  -0.624 150.620
 Approx polarizability: 146.697  -0.258 143.848  -1.736  -0.500 141.387

 ******    1 imaginary frequencies (negative Signs) ******

                      1                      2                      3
                      A                      A                      A
 Frequencies --    -27.3326                69.9605                99.1101
 Red. masses --      3.4961                 4.3845                 3.3698
 Frc consts  --      0.0015                 0.0126                 0.0195
 IR Inten    --      1.7441                 1.7496                 1.4813

                      4                      5                      6
                      A                      A                      A
 Frequencies --    154.7706               182.2231               221.9958
 Red. masses --      2.8113                 3.6115                 3.2360
 Frc consts  --      0.0397                 0.0707                 0.0940
 IR Inten    --      1.9831                 4.2935                 3.1221

                      7                      8                      9
                      A                      A                      A
 Frequencies --    254.9837               302.2653               342.9810
 Red. masses --      1.9898                 2.2992                 2.6668
 Frc consts  --      0.0762                 0.1238                 0.1848
 IR Inten    --      5.3989                 3.7259                 4.3229

                     10                     11                     12
                      A                      A                      A
 Frequencies --    369.6659               371.8606               432.4592
 Red. masses --      2.4392                 2.7891                 2.8789
 Frc consts  --      0.1964                 0.2272                 0.3172
 IR Inten    --      8.5470                19.6472                 8.7632

                     13                     14                     15
                      A                      A                      A
 Frequencies --    440.7848               464.4274               475.8294
 Red. masses --      3.2137                 3.5745                 2.6978
 Frc consts  --      0.3679                 0.4543                 0.3599
 IR Inten    --      4.1832                 0.5962                 1.2859

                     16                     17                     18
                      A                      A                      A
 Frequencies --    535.3650               567.9784               639.7197
 Red. masses --      2.0702                 2.1153                 4.5263
 Frc consts  --      0.3496                 0.4021                 1.0914
 IR Inten    --      3.6099                 9.4094                 8.5632

                     19                     20                     21
                      A                      A                      A
 Frequencies --    705.5631               821.9428               834.2537
 Red. masses --      2.7347                 2.0259                 1.6119
 Frc consts  --      0.8021                 0.8064                 0.6610
 IR Inten    --      1.0057                 1.7680                 2.9150

                     22                     23                     24
                      A                      A                      A
 Frequencies --    840.4703               877.9257               889.4110
 Red. masses --      3.4954                 1.3877                 2.4026
 Frc consts  --      1.4548                 0.6302                 1.1198
 IR Inten    --     10.1726                10.6759                16.6890

                     25                     26                     27
                      A                      A                      A
 Frequencies --    895.4383               912.0014               927.7258
 Red. masses --      2.5399                 2.2636                 1.8711
 Frc consts  --      1.1999                 1.1093                 0.9488
 IR Inten    --     20.9177                21.4936                31.2092

                     28                     29                     30
                      A                      A                      A
 Frequencies --    946.1877               978.8396               998.7115
 Red. masses --      2.1791                 1.5797                 2.0762
 Frc consts  --      1.1495                 0.8918                 1.2201
 IR Inten    --     38.6026                26.6006                13.0523

                     31                     32                     33
                      A                      A                      A
 Frequencies --   1012.6021              1045.1665              1053.6708
 Red. masses --      1.9962                 2.2043                 1.7724
 Frc consts  --      1.2059                 1.4187                 1.1593
 IR Inten    --     57.8785                82.5648                18.9484

                     34                     35                     36
                      A                      A                      A
 Frequencies --   1061.3101              1074.0554              1115.0190
 Red. masses --      1.6715                 2.0568                 4.1608
 Frc consts  --      1.1093                 1.3980                 3.0478
 IR Inten    --     61.5046                29.5193               235.5553

                     37                     38                     39
                      A                      A                      A
 Frequencies --   1144.2228              1152.2900              1171.1848
 Red. masses --      2.7169                 2.6593                 2.3580
 Frc consts  --      2.0958                 2.0804                 1.9056
 IR Inten    --     94.9043                96.5629                32.8995

                     40                     41                     42
                      A                      A                      A
 Frequencies --   1181.8195              1190.0676              1209.7754
 Red. masses --      3.6950                 2.6743                 1.3814
 Frc consts  --      3.0407                 2.2315                 1.1912
 IR Inten    --    159.2555                78.7906                13.0514

                     43                     44                     45
                      A                      A                      A
 Frequencies --   1215.7885              1233.9504              1250.8160
 Red. masses --      1.4803                 1.6317                 1.5628
 Frc consts  --      1.2892                 1.4638                 1.4406
 IR Inten    --     17.4695                50.7911                 7.9407

                     46                     47                     48
                      A                      A                      A
 Frequencies --   1288.9386              1306.9364              1322.1099
 Red. masses --      1.2110                 1.1641                 1.1581
 Frc consts  --      1.1854                 1.1715                 1.1927
 IR Inten    --     15.3234                 4.4547                12.7551

                     49                     50                     51
                      A                      A                      A
 Frequencies --   1335.0429              1347.0656              1362.3275
 Red. masses --      1.2921                 1.3162                 1.3570
 Frc consts  --      1.3569                 1.4071                 1.4839
 IR Inten    --     18.8444                13.1007                 2.7236

                     52                     53                     54
                      A                      A                      A
 Frequencies --   1368.3801              1383.4476              1386.9575
 Red. masses --      1.2150                 1.4307                 1.4645
 Frc consts  --      1.3404                 1.6133                 1.6598
 IR Inten    --      5.6277                 2.6877                 2.0057

                     55                     56                     57
                      A                      A                      A
 Frequencies --   1392.9079              1400.0226              1406.0858
 Red. masses --      1.6464                 1.2450                 1.4719
 Frc consts  --      1.8820                 1.4377                 1.7145
 IR Inten    --     14.8403                 8.8740                 9.5646

                     58                     59                     60
                      A                      A                      A
 Frequencies --   1412.1196              1428.2369              1432.1022
 Red. masses --      1.3690                 1.3918                 1.3069
 Frc consts  --      1.6085                 1.6728                 1.5792
 IR Inten    --      7.7398                 9.3303                16.8440

                     61                     62                     63
                      A                      A                      A
 Frequencies --   1434.8685              1476.1061              1481.2276
 Red. masses --      1.4081                 1.1037                 1.0939
 Frc consts  --      1.7081                 1.4169                 1.4141
 IR Inten    --     18.1394                 5.3763                 8.6993

                     64                     65                     66
                      A                      A                      A
 Frequencies --   1482.9223              1494.1811              1494.8213
 Red. masses --      1.0868                 1.1090                 1.1096
 Frc consts  --      1.4081                 1.4588                 1.4608
 IR Inten    --      7.0617                 7.9865                12.8748

                     67                     68                     69
                      A                      A                      A
 Frequencies --   1503.9887              1508.9450              1519.2854
 Red. masses --      1.0854                 1.0938                 1.0958
 Frc consts  --      1.4465                 1.4673                 1.4903
 IR Inten    --      2.7151                 3.1277                 7.1485

                     70                     71                     72
                      A                      A                      A
 Frequencies --   3020.5551              3041.7076              3050.2543
 Red. masses --      1.0705                 1.0705                 1.0733
 Frc consts  --      5.7547                 5.8354                 5.8834
 IR Inten    --     68.8949                 9.7191                30.4220

                     73                     74                     75
                      A                      A                      A
 Frequencies --   3057.5124              3061.5360              3064.5254
 Red. masses --      1.0688                 1.0694                 1.0624
 Frc consts  --      5.8866                 5.9059                 5.8787
 IR Inten    --     31.5962                87.0985                39.5650

                     76                     77                     78
                      A                      A                      A
 Frequencies --   3069.2295              3071.8699              3078.5761
 Red. masses --      1.0619                 1.0628                 1.0629
 Frc consts  --      5.8935                 5.9090                 5.9355
 IR Inten    --     47.6483                32.4203                22.7755

                     79                     80                     81
                      A                      A                      A
 Frequencies --   3112.2731              3114.5953              3115.5594
 Red. masses --      1.0912                 1.0951                 1.0977
 Frc consts  --      6.2277                 6.2591                 6.2781
 IR Inten    --     66.6629                 8.5499                39.4169

                     82                     83                     84
                      A                      A                      A
 Frequencies --   3119.3040              3120.3110              3132.1241
 Red. masses --      1.1021                 1.1031                 1.1024
 Frc consts  --      6.3182                 6.3281                 6.3717
 IR Inten    --     70.7682                59.2203                38.6542

                     85                     86                     87
                      A                      A                      A
 Frequencies --   3133.4235              3134.4041              3135.8374
 Red. masses --      1.0955                 1.0986                 1.0975
 Frc consts  --      6.3373                 6.3594                 6.3584
 IR Inten    --     55.2280                54.4437                29.3799

 - Thermochemistry -
 -------------------
 Temperature   298.150 Kelvin.  Pressure   1.00000 Atm.
 Atom     1 has atomic number  6 and mass  12.00000

 Molecular mass:   186.12559 amu.
 Principal axes and moments of inertia in atomic units:
                           1         2         3
     Eigenvalues --   975.044184061.050904264.70682
           X            0.99996  -0.00878   0.00058
           Y            0.00878   0.99996   0.00258
           Z           -0.00060  -0.00258   1.00000
 This molecule is an asymmetric top.
 Rotational symmetry number  1.
 Warning -- assumption of classical behavior for rotation
           may cause significant error
 Rotational temperatures (Kelvin)      0.08883     0.02133     0.02031
 Rotational constants (GHZ):           1.85093     0.44440     0.42318
    1 imaginary frequencies ignored.
 Zero-point vibrational energy     737313.6 (Joules/Mol)
                                  176.22219 (Kcal/Mol)
 Warning -- explicit consideration of  16 degrees of freedom as
           vibrations may cause significant error
 Vibrational temperatures:    100.66   142.60   222.68   262.18   319.40
          (Kelvin)            366.86   434.89   493.47   531.87   535.02
                              622.21   634.19   668.21   684.61   770.27
                              817.19   920.41  1015.15  1182.59  1200.30
                             1209.25  1263.14  1279.66  1288.34  1312.17
                             1334.79  1361.35  1408.33  1436.92  1456.91
                             1503.76  1516.00  1526.99  1545.33  1604.26
                             1646.28  1657.89  1685.07  1700.37  1712.24
                             1740.60  1749.25  1775.38  1799.65  1854.50
                             1880.39  1902.22  1920.83  1938.13  1960.09
                             1968.79  1990.47  1995.52  2004.08  2014.32
                             2023.04  2031.73  2054.91  2060.48  2064.46
                             2123.79  2131.16  2133.59  2149.79  2150.71
                             2163.90  2171.04  2185.91  4345.91  4376.34
                             4388.64  4399.08  4404.87  4409.17  4415.94
                             4419.74  4429.38  4477.87  4481.21  4482.60
                             4487.98  4489.43  4506.43  4508.30  4509.71
                             4511.77

 Zero-point correction=                           0.280828 (Hartree/Particle)
 Thermal correction to Energy=                    0.291665
 Thermal correction to Enthalpy=                  0.292609
 Thermal correction to Gibbs Free Energy=         0.244414
 Sum of electronic and zero-point Energies=           -617.217517
 Sum of electronic and thermal Energies=              -617.206680
 Sum of electronic and thermal Enthalpies=            -617.205736
 Sum of electronic and thermal Free Energies=         -617.253931

                     E (Thermal)             CV                S
                      KCal/Mol        Cal/Mol-Kelvin    Cal/Mol-Kelvin
 Total                  183.023             44.755            101.436
 Electronic               0.000              0.000              0.000
 Translational            0.889              2.981             41.570
 Rotational               0.889              2.981             31.202
 Vibrational            181.245             38.793             28.664
 Vibration     1          0.598              1.968              4.154
 Vibration     2          0.604              1.950              3.472
 Vibration     3          0.620              1.897              2.613
 Vibration     4          0.630              1.864              2.306
 Vibration     5          0.648              1.808              1.943
 Vibration     6          0.665              1.754              1.696
 Vibration     7          0.694              1.669              1.404
 Vibration     8          0.722              1.590              1.198
 Vibration     9          0.742              1.535              1.081
 Vibration    10          0.744              1.530              1.072
 Vibration    11          0.793              1.400              0.851
 Vibration    12          0.801              1.381              0.824
 Vibration    13          0.822              1.329              0.753
 Vibration    14          0.832              1.304              0.721
 Vibration    15          0.890              1.172              0.575
 Vibration    16          0.924              1.101              0.508

 Optimization completed.
    -- Stationary point found.
 Normal termination of Gaussian 16 at Sun Nov  4 22:51:37 2018.
