 Gaussian 16, Revision A.03,
 Gaussian 16:  ES64L-G16RevA.03 25-Dec-2016

 ----------------------------------------------------------------------
 #M062X/6-311++G(2d,2p) opt=ModRedundant freq=noraman SCRF=(Solvent=Wat
 er)
 ----------------------------------------------------------------------

 ----------------------------
 D_1a_4e_D_PSI.inp_extract_21
 ----------------------------
 Symbolic Z-matrix:
 Charge =  0 Multiplicity = 1

 SCF Done:  E(RM062X) =  -617.497343771     A.U. after   13 cycles
 SCF Done:  E(RM062X) =  -617.499244192     A.U. after   12 cycles
 SCF Done:  E(RM062X) =  -617.499749471     A.U. after   11 cycles
 SCF Done:  E(RM062X) =  -617.499863638     A.U. after   10 cycles
 SCF Done:  E(RM062X) =  -617.499875832     A.U. after   10 cycles
 SCF Done:  E(RM062X) =  -617.499884424     A.U. after    9 cycles
 SCF Done:  E(RM062X) =  -617.499884951     A.U. after    7 cycles
 Optimization completed.
    -- Stationary point found.
 Normal termination of Gaussian 16 at Sun Nov  4 22:03:01 2018.

 ----------------------------------------------------------------------
 #N Geom=AllCheck Guess=TCheck SCRF=Check GenChk RM062X/6-311++G(2d,2p)
  Freq
 ----------------------------------------------------------------------

 Structure from the checkpoint file:  "D_1a_4e_D_PSI.inp_extract_21.chk"
 ----------------------------
 D_1a_4e_D_PSI.inp_extract_21
 ----------------------------
 Charge =  0 Multiplicity = 1

                         Standard orientation:
 ---------------------------------------------------------------------
 Center     Atomic      Atomic             Coordinates (Angstroms)
 Number     Number       Type             X           Y           Z
 ---------------------------------------------------------------------
      1          6           0        3.263420    1.035852   -0.269039
      2          6           0        1.122495   -0.893847   -0.283806
      3          6           0       -1.037522   -0.420185    0.727302
      4          6           0        3.289985   -0.114370    0.735170
      5          8           0       -3.086584   -0.991521   -0.392997
      6          6           0       -3.473355    0.371809   -0.520123
      7          6           0        1.824036    1.355332   -0.632522
      8          6           0       -1.394310    1.060057    0.674064
      9          6           0       -1.680064   -1.150058   -0.451756
     10          6           0       -2.914851    1.209816    0.618522
     11          8           0        1.146765    0.212894   -1.160751
     12          8           0        0.368091   -0.628381    0.871504
     13          6           0        2.519325   -1.300495    0.160301
     14          1           0        3.808983    0.753470   -1.172662
     15          1           0        3.736765    1.929064    0.139692
     16          1           0       -1.476234   -0.844764    1.633875
     17          1           0        4.313590   -0.408620    0.964318
     18          1           0        2.826285    0.207829    1.669659
     19          1           0       -4.561117    0.379068   -0.526075
     20          1           0       -3.117243    0.758272   -1.482855
     21          1           0        1.290631    1.718661    0.250037
     22          1           0        1.761665    2.115023   -1.408671
     23          1           0       -0.947589    1.498710   -0.221535
     24          1           0       -0.976954    1.569503    1.542974
     25          1           0       -3.358169    0.870798    1.557330
     26          1           0       -3.197076    2.253354    0.477880
     27          1           0        3.040615   -1.684036   -0.718768
     28          1           0        2.433563   -2.114197    0.879054
     29          1           0        0.666816   -1.694096   -0.866139
     30          1           0       -1.302570   -0.755270   -1.401930
     31          1           0       -1.483085   -2.220167   -0.406904
 ---------------------------------------------------------------------

 SCF Done:  E(RM062X) =  -617.499884951     A.U. after    1 cycles

 The electronic state is 1-A.
 Alpha  occ. eigenvalues --  -19.63260 -19.63249 -19.63019 -10.63590 -10.58874
 Alpha  occ. eigenvalues --  -10.58356 -10.58087 -10.57759 -10.53225 -10.53092
 Alpha  occ. eigenvalues --  -10.53000 -10.52978 -10.52872  -1.19926  -1.16715
 Alpha  occ. eigenvalues --   -1.13305  -0.91043  -0.89769  -0.87096  -0.84844
 Alpha  occ. eigenvalues --   -0.75152  -0.74238  -0.72830  -0.70675  -0.66895
 Alpha  occ. eigenvalues --   -0.62636  -0.60290  -0.58900  -0.56946  -0.55798
 Alpha  occ. eigenvalues --   -0.54218  -0.53269  -0.51562  -0.50567  -0.49619
 Alpha  occ. eigenvalues --   -0.49426  -0.47160  -0.46084  -0.45676  -0.44997
 Alpha  occ. eigenvalues --   -0.44224  -0.42082  -0.41028  -0.40022  -0.39951
 Alpha  occ. eigenvalues --   -0.38389  -0.37976  -0.36634  -0.34624  -0.33296
 Alpha  occ. eigenvalues --   -0.31980
 Alpha virt. eigenvalues --   -0.00096   0.00753   0.00889   0.00965   0.02231
 Alpha virt. eigenvalues --    0.02539   0.02670   0.03297   0.03503   0.04404
 Alpha virt. eigenvalues --    0.04922   0.04975   0.05580   0.05914   0.07091

 Mulliken charges:
               1
     1  C   -0.430196
     2  C   -0.133578
     3  C    0.072501
     4  C   -0.289516
     5  O   -0.352360
     6  C   -0.163469
     7  C   -0.094023
     8  C   -0.318101
     9  C   -0.345455
    10  C   -0.404695
    11  O   -0.270369
    12  O   -0.318808
    13  C   -0.453851
    14  H    0.164173
    15  H    0.174072
    16  H    0.260584
    17  H    0.188547
    18  H    0.176346
    19  H    0.219531
    20  H    0.131910
    21  H    0.140288
    22  H    0.212583
    23  H    0.223959
    24  H    0.194797
    25  H    0.176168
    26  H    0.164412
    27  H    0.196269
    28  H    0.188423
    29  H    0.246453
    30  H    0.241312
    31  H    0.202093
 Sum of Mulliken charges =  -0.00000

 Dipole moment (field-independent basis, Debye):
    X=              1.3910    Y=              1.7746    Z=              0.2366  Tot=              2.2672
 Quadrupole moment (field-independent basis, Debye-Ang):
   XX=            -77.8588   YY=            -76.8983   ZZ=            -83.5000
   XY=             -6.0857   XZ=             -0.7756   YZ=              0.5722

  Exact polarizability: 174.274  -2.327 159.793  -0.442  -0.122 149.264
 Approx polarizability: 146.451  -0.453 143.944  -1.581  -0.560 141.496

                      1                      2                      3
                      A                      A                      A
 Frequencies --     55.8105                83.7961               104.3402
 Red. masses --      3.5839                 4.0547                 3.3753
 Frc consts  --      0.0066                 0.0168                 0.0217
 IR Inten    --      0.5806                 2.5863                 1.4504

                      4                      5                      6
                      A                      A                      A
 Frequencies --    160.6408               179.3965               226.8007
 Red. masses --      2.9934                 3.4610                 3.3508
 Frc consts  --      0.0455                 0.0656                 0.1016
 IR Inten    --      2.5026                 3.2590                 4.8303

                      7                      8                      9
                      A                      A                      A
 Frequencies --    262.6642               303.2263               341.0825
 Red. masses --      1.9546                 2.2066                 2.8507
 Frc consts  --      0.0795                 0.1195                 0.1954
 IR Inten    --      4.4042                 3.3948                 5.8346

                     10                     11                     12
                      A                      A                      A
 Frequencies --    370.4020               377.9627               435.0376
 Red. masses --      2.3928                 2.9528                 3.0183
 Frc consts  --      0.1934                 0.2485                 0.3366
 IR Inten    --      9.5189                21.2051                 9.3120

                     13                     14                     15
                      A                      A                      A
 Frequencies --    437.9248               466.6148               478.0403
 Red. masses --      3.1650                 3.3776                 2.7963
 Frc consts  --      0.3576                 0.4333                 0.3765
 IR Inten    --      3.6200                 0.1688                 0.8549

                     16                     17                     18
                      A                      A                      A
 Frequencies --    536.3886               571.0430               653.1362
 Red. masses --      2.0593                 2.0651                 4.6842
 Frc consts  --      0.3491                 0.3968                 1.1773
 IR Inten    --      5.1100                 7.7311                 7.9940

                     19                     20                     21
                      A                      A                      A
 Frequencies --    704.6674               820.2569               833.9454
 Red. masses --      2.7421                 2.0082                 1.6464
 Frc consts  --      0.8022                 0.7961                 0.6746
 IR Inten    --      0.6594                 1.6266                 1.5576

                     22                     23                     24
                      A                      A                      A
 Frequencies --    840.5585               882.4342               889.1223
 Red. masses --      3.3633                 1.3856                 2.4504
 Frc consts  --      1.4001                 0.6357                 1.1413
 IR Inten    --     10.7069                11.4481                14.7809

                     25                     26                     27
                      A                      A                      A
 Frequencies --    894.9065               912.1686               927.8331
 Red. masses --      2.4177                 2.2907                 1.8384
 Frc consts  --      1.1408                 1.1230                 0.9324
 IR Inten    --     17.0214                25.1261                31.9928

                     28                     29                     30
                      A                      A                      A
 Frequencies --    946.0657               978.1491               999.8640
 Red. masses --      2.2574                 1.5928                 1.9098
 Frc consts  --      1.1904                 0.8979                 1.1249
 IR Inten    --     42.2377                27.5577                 9.9667

                     31                     32                     33
                      A                      A                      A
 Frequencies --   1012.0909              1045.4168              1052.7206
 Red. masses --      2.1055                 2.2183                 1.7914
 Frc consts  --      1.2707                 1.4284                 1.1697
 IR Inten    --     59.7808                85.0256                13.2809

                     34                     35                     36
                      A                      A                      A
 Frequencies --   1061.9226              1074.3343              1116.1528
 Red. masses --      1.6264                 2.0889                 4.0699
 Frc consts  --      1.0806                 1.4205                 2.9873
 IR Inten    --     65.9788                27.9413               220.2057

                     37                     38                     39
                      A                      A                      A
 Frequencies --   1143.3234              1152.0061              1165.9923
 Red. masses --      2.7871                 2.6056                 2.5064
 Frc consts  --      2.1465                 2.0373                 2.0076
 IR Inten    --     93.0767                82.6063                53.0819

                     40                     41                     42
                      A                      A                      A
 Frequencies --   1180.7890              1194.5493              1211.0163
 Red. masses --      3.6574                 2.5940                 1.4044
 Frc consts  --      3.0045                 2.1809                 1.2135
 IR Inten    --    136.1928                77.5632                15.9484

                     43                     44                     45
                      A                      A                      A
 Frequencies --   1213.8768              1234.4506              1248.9159
 Red. masses --      1.4411                 1.6362                 1.5547
 Frc consts  --      1.2511                 1.4691                 1.4287
 IR Inten    --     23.1360                52.4741                 7.3565

                     46                     47                     48
                      A                      A                      A
 Frequencies --   1289.7916              1307.3503              1324.0038
 Red. masses --      1.2140                 1.1576                 1.1576
 Frc consts  --      1.1899                 1.1657                 1.1956
 IR Inten    --     15.3733                 6.2927                13.9137

                     49                     50                     51
                      A                      A                      A
 Frequencies --   1337.9274              1345.7284              1362.7086
 Red. masses --      1.3195                 1.2907                 1.3700
 Frc consts  --      1.3917                 1.3772                 1.4989
 IR Inten    --      9.6520                14.8394                 4.1358

                     52                     53                     54
                      A                      A                      A
 Frequencies --   1369.5444              1383.4511              1387.6799
 Red. masses --      1.2803                 1.4216                 1.4545
 Frc consts  --      1.4148                 1.6030                 1.6502
 IR Inten    --     16.2804                 1.4092                 0.6443

                     55                     56                     57
                      A                      A                      A
 Frequencies --   1395.0940              1401.1178              1403.5044
 Red. masses --      1.6590                 1.2711                 1.3667
 Frc consts  --      1.9024                 1.4702                 1.5862
 IR Inten    --     12.8175                15.4881                 4.2814

                     58                     59                     60
                      A                      A                      A
 Frequencies --   1414.8743              1423.9847              1431.4599
 Red. masses --      1.3518                 1.3569                 1.3485
 Frc consts  --      1.5944                 1.6211                 1.6281
 IR Inten    --      8.7496                15.4315                 7.2912

                     61                     62                     63
                      A                      A                      A
 Frequencies --   1437.1703              1475.2574              1481.5141
 Red. masses --      1.3999                 1.1041                 1.0938
 Frc consts  --      1.7036                 1.4157                 1.4145
 IR Inten    --     17.6377                 5.0651                 9.8961

                     64                     65                     66
                      A                      A                      A
 Frequencies --   1482.7208              1495.8824              1498.5420
 Red. masses --      1.0875                 1.1070                 1.1072
 Frc consts  --      1.4086                 1.4595                 1.4650
 IR Inten    --      7.4928                12.4851                 6.6170

                     67                     68                     69
                      A                      A                      A
 Frequencies --   1505.3738              1510.1907              1519.4588
 Red. masses --      1.0836                 1.0936                 1.0983
 Frc consts  --      1.4468                 1.4696                 1.4940
 IR Inten    --      1.8725                 3.5898                 7.2270

                     70                     71                     72
                      A                      A                      A
 Frequencies --   3021.3260              3034.4299              3058.8415
 Red. masses --      1.0705                 1.0667                 1.0685
 Frc consts  --      5.7573                 5.7870                 5.8904
 IR Inten    --     67.0076                36.8430                28.7859

                     73                     74                     75
                      A                      A                      A
 Frequencies --   3061.0664              3065.3306              3068.4880
 Red. masses --      1.0750                 1.0625                 1.0660
 Frc consts  --      5.9347                 5.8822                 5.9134
 IR Inten    --     18.7643                63.8087                16.2265

                     76                     77                     78
                      A                      A                      A
 Frequencies --   3071.1431              3072.7069              3078.2103
 Red. masses --      1.0645                 1.0631                 1.0628
 Frc consts  --      5.9156                 5.9139                 5.9332
 IR Inten    --     77.2342                31.8208                20.5847

                     79                     80                     81
                      A                      A                      A
 Frequencies --   3107.8247              3113.7117              3115.9457
 Red. masses --      1.0862                 1.0977                 1.1003
 Frc consts  --      6.1813                 6.2706                 6.2943
 IR Inten    --     72.4053                25.9626                34.4395

                     82                     83                     84
                      A                      A                      A
 Frequencies --   3119.7268              3122.0168              3126.5490
 Red. masses --      1.1021                 1.1040                 1.0983
 Frc consts  --      6.3200                 6.3399                 6.3254
 IR Inten    --     67.7416                57.8561                47.8664

                     85                     86                     87
                      A                      A                      A
 Frequencies --   3131.8125              3134.2601              3135.0043
 Red. masses --      1.1025                 1.0998                 1.0955
 Frc consts  --      6.3711                 6.3656                 6.3438
 IR Inten    --     36.3616                46.3891                36.2634

 - Thermochemistry -
 -------------------
 Temperature   298.150 Kelvin.  Pressure   1.00000 Atm.
 Atom     1 has atomic number  6 and mass  12.00000

 Molecular mass:   186.12559 amu.
 Principal axes and moments of inertia in atomic units:
                           1         2         3
     Eigenvalues --   969.695073968.098804270.83036
           X            0.99995  -0.00960   0.00110
           Y            0.00958   0.99982   0.01636
           Z           -0.00125  -0.01635   0.99987
 This molecule is an asymmetric top.
 Rotational symmetry number  1.
 Warning -- assumption of classical behavior for rotation
           may cause significant error
 Rotational temperatures (Kelvin)      0.08932     0.02183     0.02028
 Rotational constants (GHZ):           1.86114     0.45481     0.42257
 Zero-point vibrational energy     738123.2 (Joules/Mol)
                                  176.41568 (Kcal/Mol)
 Warning -- explicit consideration of  17 degrees of freedom as
           vibrations may cause significant error
 Vibrational temperatures:     80.30   120.56   150.12   231.13   258.11
          (Kelvin)            326.32   377.92   436.27   490.74   532.93
                              543.80   625.92   630.08   671.35   687.79
                              771.74   821.60   939.72  1013.86  1180.17
                             1199.86  1209.38  1269.63  1279.25  1287.57
                             1312.41  1334.94  1361.18  1407.34  1438.58
                             1456.17  1504.12  1514.63  1527.87  1545.73
                             1605.89  1644.99  1657.48  1677.60  1698.89
                             1718.69  1742.38  1746.50  1776.10  1796.91
                             1855.72  1880.99  1904.95  1924.98  1936.20
                             1960.63  1970.47  1990.48  1996.56  2007.23
                             2015.90  2019.33  2035.69  2048.80  2059.55
                             2067.77  2122.57  2131.57  2133.30  2152.24
                             2156.07  2165.90  2172.83  2186.16  4347.01
                             4365.87  4400.99  4404.19  4410.33  4414.87
                             4418.69  4420.94  4428.86  4471.47  4479.94
                             4483.15  4488.59  4491.89  4498.41  4505.98
                             4509.50  4510.57

 Zero-point correction=                           0.281136 (Hartree/Particle)
 Thermal correction to Energy=                    0.292717
 Thermal correction to Enthalpy=                  0.293661
 Thermal correction to Gibbs Free Energy=         0.243602
 Sum of electronic and zero-point Energies=           -617.218749
 Sum of electronic and thermal Energies=              -617.207168
 Sum of electronic and thermal Enthalpies=            -617.206224
 Sum of electronic and thermal Free Energies=         -617.256283

                     E (Thermal)             CV                S
                      KCal/Mol        Cal/Mol-Kelvin    Cal/Mol-Kelvin
 Total                  183.683             46.633            105.359
 Electronic               0.000              0.000              0.000
 Translational            0.889              2.981             41.570
 Rotational               0.889              2.981             31.175
 Vibrational            181.905             40.671             32.614
 Vibration     1          0.596              1.975              4.600
 Vibration     2          0.601              1.960              3.800
 Vibration     3          0.605              1.946              3.372
 Vibration     4          0.622              1.891              2.542
 Vibration     5          0.629              1.868              2.335
 Vibration     6          0.650              1.800              1.904
 Vibration     7          0.670              1.741              1.644
 Vibration     8          0.695              1.668              1.399
 Vibration     9          0.721              1.593              1.207
 Vibration    10          0.742              1.533              1.078
 Vibration    11          0.748              1.517              1.047
 Vibration    12          0.796              1.394              0.842
 Vibration    13          0.798              1.388              0.833
 Vibration    14          0.824              1.324              0.747
 Vibration    15          0.835              1.299              0.715
 Vibration    16          0.891              1.170              0.573
 Vibration    17          0.927              1.094              0.502

 Optimization completed.
    -- Stationary point found.
 Normal termination of Gaussian 16 at Sun Nov  4 22:58:56 2018.
