 Gaussian 16, Revision A.03,
 Gaussian 16:  ES64L-G16RevA.03 25-Dec-2016

 ----------------------------------------------------------------------
 #M062X/6-311++G(2d,2p) opt=ModRedundant freq=noraman SCRF=(Solvent=Wat
 er)
 ----------------------------------------------------------------------

 ---------------------------
 D_1a_4e_D_PSI.inp_extract_9
 ---------------------------
 Symbolic Z-matrix:
 Charge =  0 Multiplicity = 1

 SCF Done:  E(RM062X) =  -617.502767175     A.U. after   12 cycles
 SCF Done:  E(RM062X) =  -617.504409930     A.U. after   11 cycles
 SCF Done:  E(RM062X) =  -617.504553585     A.U. after   10 cycles
 SCF Done:  E(RM062X) =  -617.504609412     A.U. after   10 cycles
 SCF Done:  E(RM062X) =  -617.504631691     A.U. after   10 cycles
 SCF Done:  E(RM062X) =  -617.504637208     A.U. after    8 cycles
 SCF Done:  E(RM062X) =  -617.504638060     A.U. after    8 cycles
 SCF Done:  E(RM062X) =  -617.504638087     A.U. after    6 cycles
 Optimization completed.
    -- Stationary point found.
 Normal termination of Gaussian 16 at Sun Nov  4 22:04:14 2018.

 ----------------------------------------------------------------------
 #N Geom=AllCheck Guess=TCheck SCRF=Check GenChk RM062X/6-311++G(2d,2p)
  Freq
 ----------------------------------------------------------------------

 Structure from the checkpoint file:  "D_1a_4e_D_PSI.inp_extract_9.chk"
 ---------------------------
 D_1a_4e_D_PSI.inp_extract_9
 ---------------------------
 Charge =  0 Multiplicity = 1

                         Standard orientation:
 ---------------------------------------------------------------------
 Center     Atomic      Atomic             Coordinates (Angstroms)
 Number     Number       Type             X           Y           Z
 ---------------------------------------------------------------------
      1          6           0        3.481025   -0.873744    0.117743
      2          6           0        1.243025    0.924739    0.265880
      3          6           0       -0.965374    0.049434    0.082864
      4          6           0        3.147060    0.005984   -1.085800
      5          8           0       -2.886705   -1.406164   -0.182342
      6          6           0       -3.786488   -0.305044   -0.213844
      7          6           0        2.224043   -1.133955    0.930426
      8          6           0       -1.875134    1.271002    0.111321
      9          6           0       -1.622841   -1.066015   -0.717956
     10          6           0       -3.261218    0.859263    0.610140
     11          8           0        1.607384    0.087898    1.340915
     12          8           0        0.276035    0.316402   -0.556348
     13          6           0        2.435718    1.271797   -0.609493
     14          1           0        4.215285   -0.370393    0.751390
     15          1           0        3.910990   -1.825264   -0.196379
     16          1           0       -0.786593   -0.311369    1.099606
     17          1           0        4.049857    0.268280   -1.636269
     18          1           0        2.496831   -0.543547   -1.769101
     19          1           0       -4.733056   -0.674071    0.175012
     20          1           0       -3.935680    0.007912   -1.254508
     21          1           0        1.510061   -1.722230    0.346788
     22          1           0        2.443849   -1.673062    1.849060
     23          1           0       -1.947908    1.662974   -0.907045
     24          1           0       -1.456216    2.056430    0.740213
     25          1           0       -3.205913    0.555318    1.657646
     26          1           0       -3.957554    1.695448    0.546232
     27          1           0        3.118262    1.877186   -0.010532
     28          1           0        2.093616    1.880434   -1.445543
     29          1           0        0.826954    1.815269    0.741034
     30          1           0       -1.727720   -0.741580   -1.761293
     31          1           0       -1.007673   -1.963593   -0.691796
 ---------------------------------------------------------------------

 SCF Done:  E(RM062X) =  -617.504638087     A.U. after    1 cycles

 The electronic state is 1-A.
 Alpha  occ. eigenvalues --  -19.63373 -19.63177 -19.63026 -10.63544 -10.58577
 Alpha  occ. eigenvalues --  -10.58118 -10.58079 -10.57812 -10.53327 -10.53219
 Alpha  occ. eigenvalues --  -10.53100 -10.53006 -10.52888  -1.20213  -1.16697
 Alpha  occ. eigenvalues --   -1.13483  -0.91038  -0.89720  -0.87527  -0.84426
 Alpha  occ. eigenvalues --   -0.74945  -0.73934  -0.72752  -0.70863  -0.65707
 Alpha  occ. eigenvalues --   -0.64171  -0.60046  -0.58660  -0.57544  -0.55776
 Alpha  occ. eigenvalues --   -0.54255  -0.53265  -0.51795  -0.50774  -0.49758
 Alpha  occ. eigenvalues --   -0.48557  -0.47636  -0.46089  -0.45637  -0.44781
 Alpha  occ. eigenvalues --   -0.43906  -0.41966  -0.41303  -0.40563  -0.39486
 Alpha  occ. eigenvalues --   -0.38332  -0.38075  -0.36400  -0.34998  -0.33397
 Alpha  occ. eigenvalues --   -0.32216
 Alpha virt. eigenvalues --   -0.00053   0.00774   0.00910   0.00997   0.02171
 Alpha virt. eigenvalues --    0.02454   0.02641   0.03394   0.03736   0.04380
 Alpha virt. eigenvalues --    0.04545   0.04809   0.05467   0.05815   0.07259

 Mulliken charges:
               1
     1  C   -0.373909
     2  C   -0.063835
     3  C   -0.304021
     4  C   -0.294087
     5  O   -0.331951
     6  C   -0.177745
     7  C   -0.127195
     8  C   -0.153497
     9  C   -0.240247
    10  C   -0.390394
    11  O   -0.287154
    12  O   -0.257671
    13  C   -0.383329
    14  H    0.166450
    15  H    0.169956
    16  H    0.299633
    17  H    0.182942
    18  H    0.179496
    19  H    0.207783
    20  H    0.137577
    21  H    0.114599
    22  H    0.204240
    23  H    0.215059
    24  H    0.137510
    25  H    0.164583
    26  H    0.183730
    27  H    0.186495
    28  H    0.180029
    29  H    0.265072
    30  H    0.190325
    31  H    0.199554
 Sum of Mulliken charges =  -0.00000

 Dipole moment (field-independent basis, Debye):
    X=              0.5629    Y=              1.7053    Z=             -0.7128  Tot=              1.9321
 Quadrupole moment (field-independent basis, Debye-Ang):
   XX=            -72.6821   YY=            -79.7286   ZZ=            -83.3791
   XY=             -7.9972   XZ=             -1.4294   YZ=             -0.2874

  Exact polarizability: 175.609  -2.809 157.965  -1.916  -0.928 151.493
 Approx polarizability: 146.735  -1.324 143.016  -0.268  -0.703 142.145

                      1                      2                      3
                      A                      A                      A
 Frequencies --     25.4990                53.7971                83.5158
 Red. masses --      3.4112                 4.1410                 3.3940
 Frc consts  --      0.0013                 0.0071                 0.0139
 IR Inten    --      1.2235                 0.8350                 0.6064

                      4                      5                      6
                      A                      A                      A
 Frequencies --    151.8745               173.0860               240.0733
 Red. masses --      3.6211                 2.7598                 2.8245
 Frc consts  --      0.0492                 0.0487                 0.0959
 IR Inten    --      2.8005                 0.3249                 8.0385

                      7                      8                      9
                      A                      A                      A
 Frequencies --    246.6451               286.7692               340.2200
 Red. masses --      2.1433                 2.3976                 2.4691
 Frc consts  --      0.0768                 0.1162                 0.1684
 IR Inten    --      2.8229                 5.5928                 2.2337

                     10                     11                     12
                      A                      A                      A
 Frequencies --    377.7772               388.5690               434.7081
 Red. masses --      2.5060                 2.4799                 3.3757
 Frc consts  --      0.2107                 0.2206                 0.3758
 IR Inten    --     24.1281                11.6028                 8.6281

                     13                     14                     15
                      A                      A                      A
 Frequencies --    458.1261               463.9642               480.9410
 Red. masses --      3.9407                 3.1474                 2.3758
 Frc consts  --      0.4873                 0.3992                 0.3238
 IR Inten    --      4.6506                 1.7443                 2.5609

                     16                     17                     18
                      A                      A                      A
 Frequencies --    532.6054               578.2447               612.8023
 Red. masses --      2.2613                 2.4514                 2.6181
 Frc consts  --      0.3779                 0.4829                 0.5793
 IR Inten    --      2.5580                12.9695                 2.2673

                     19                     20                     21
                      A                      A                      A
 Frequencies --    726.3011               829.4473               833.4438
 Red. masses --      3.0449                 2.1716                 1.5691
 Frc consts  --      0.9464                 0.8803                 0.6422
 IR Inten    --      4.8087                 0.9385                 2.3890

                     22                     23                     24
                      A                      A                      A
 Frequencies --    840.5797               876.9745               892.0128
 Red. masses --      3.2591                 1.4066                 2.3319
 Frc consts  --      1.3568                 0.6374                 1.0932
 IR Inten    --      9.3379                12.9983                 8.5645

                     25                     26                     27
                      A                      A                      A
 Frequencies --    899.2431               907.6909               929.7488
 Red. masses --      2.4421                 2.4678                 1.6230
 Frc consts  --      1.1635                 1.1979                 0.8266
 IR Inten    --     26.3384                19.3794                23.4633

                     28                     29                     30
                      A                      A                      A
 Frequencies --    943.2116               980.6387              1000.7245
 Red. masses --      2.1902                 2.3653                 1.4289
 Frc consts  --      1.1480                 1.3402                 0.8431
 IR Inten    --     41.5652                63.7721                12.1100

                     31                     32                     33
                      A                      A                      A
 Frequencies --   1030.5977              1044.3255              1057.0121
 Red. masses --      2.1739                 2.3830                 1.7121
 Frc consts  --      1.3604                 1.5313                 1.1270
 IR Inten    --     15.0306               102.6337                23.1608

                     34                     35                     36
                      A                      A                      A
 Frequencies --   1065.1260              1071.0195              1113.2234
 Red. masses --      1.5197                 2.2967                 4.3699
 Frc consts  --      1.0158                 1.5522                 3.1907
 IR Inten    --     69.9341                15.3045               265.8000

                     37                     38                     39
                      A                      A                      A
 Frequencies --   1147.8712              1154.4969              1170.0285
 Red. masses --      2.4482                 2.9285                 3.7447
 Frc consts  --      1.9006                 2.2997                 3.0204
 IR Inten    --     16.8593               134.2651               184.2064

                     40                     41                     42
                      A                      A                      A
 Frequencies --   1174.8200              1190.4115              1210.6943
 Red. masses --      2.5018                 2.5017                 1.4599
 Frc consts  --      2.0344                 2.0887                 1.2608
 IR Inten    --     21.4054                50.3364                27.1666

                     43                     44                     45
                      A                      A                      A
 Frequencies --   1214.3119              1234.2001              1248.2675
 Red. masses --      1.4529                 1.6217                 1.4872
 Frc consts  --      1.2623                 1.4554                 1.3653
 IR Inten    --     16.9460                58.8705                24.9844

                     46                     47                     48
                      A                      A                      A
 Frequencies --   1288.3412              1303.6476              1318.6505
 Red. masses --      1.2178                 1.1772                 1.1472
 Frc consts  --      1.1909                 1.1787                 1.1753
 IR Inten    --     19.6137                17.2311                 6.9511

                     49                     50                     51
                      A                      A                      A
 Frequencies --   1331.2880              1341.1505              1352.2804
 Red. masses --      1.2809                 1.2488                 1.2484
 Frc consts  --      1.3375                 1.3234                 1.3451
 IR Inten    --      8.6571                 4.9086                16.1391

                     52                     53                     54
                      A                      A                      A
 Frequencies --   1361.2724              1381.3097              1385.8102
 Red. masses --      1.3281                 1.4151                 1.4816
 Frc consts  --      1.4500                 1.5908                 1.6765
 IR Inten    --      3.0219                 7.7688                 1.0408

                     55                     56                     57
                      A                      A                      A
 Frequencies --   1391.6687              1400.8776              1403.9153
 Red. masses --      1.6418                 1.3107                 1.4203
 Frc consts  --      1.8734                 1.5155                 1.6494
 IR Inten    --      5.9366                16.9487                 8.8665

                     58                     59                     60
                      A                      A                      A
 Frequencies --   1407.7468              1416.5527              1431.7881
 Red. masses --      1.4420                 1.4080                 1.4198
 Frc consts  --      1.6837                 1.6647                 1.7148
 IR Inten    --     21.7723                 8.7392                15.8811

                     61                     62                     63
                      A                      A                      A
 Frequencies --   1437.4440              1475.9665              1480.9773
 Red. masses --      1.4342                 1.1060                 1.0924
 Frc consts  --      1.7460                 1.4196                 1.4116
 IR Inten    --      4.7042                 4.9070                 7.7082

                     64                     65                     66
                      A                      A                      A
 Frequencies --   1482.0593              1494.5744              1495.3638
 Red. masses --      1.0856                 1.1115                 1.1080
 Frc consts  --      1.4049                 1.4629                 1.4597
 IR Inten    --      8.3442                10.8097                13.8958

                     67                     68                     69
                      A                      A                      A
 Frequencies --   1501.6475              1508.9743              1514.3769
 Red. masses --      1.0883                 1.0936                 1.1019
 Frc consts  --      1.4458                 1.4672                 1.4889
 IR Inten    --      0.6104                 3.8952                 8.9963

                     70                     71                     72
                      A                      A                      A
 Frequencies --   3016.8755              3020.4817              3054.3620
 Red. masses --      1.0691                 1.0704                 1.0690
 Frc consts  --      5.7329                 5.7537                 5.8761
 IR Inten    --     40.4200                92.9708                42.8716

                     73                     74                     75
                      A                      A                      A
 Frequencies --   3056.2886              3063.7249              3068.9910
 Red. masses --      1.0676                 1.0628                 1.0704
 Frc consts  --      5.8754                 5.8778                 5.9402
 IR Inten    --     14.2529                45.0418                 9.3803

                     76                     77                     78
                      A                      A                      A
 Frequencies --   3071.2833              3072.9852              3076.4158
 Red. masses --      1.0715                 1.0636                 1.0689
 Frc consts  --      5.9551                 5.9177                 5.9603
 IR Inten    --     80.8950                29.6692                 5.6767

                     79                     80                     81
                      A                      A                      A
 Frequencies --   3086.5413              3113.7006              3116.2380
 Red. masses --      1.0783                 1.0979                 1.0978
 Frc consts  --      6.0527                 6.2713                 6.2810
 IR Inten    --     72.5929                41.8628                41.6521

                     82                     83                     84
                      A                      A                      A
 Frequencies --   3119.3541              3120.9676              3130.6983
 Red. masses --      1.1026                 1.1027                 1.1034
 Frc consts  --      6.3209                 6.3283                 6.3718
 IR Inten    --     66.1919                53.4105                32.4222

                     85                     86                     87
                      A                      A                      A
 Frequencies --   3130.9498              3133.6375              3136.1285
 Red. masses --      1.0951                 1.0955                 1.0983
 Frc consts  --      6.3247                 6.3383                 6.3642
 IR Inten    --     54.7009                38.0811                45.2268

 - Thermochemistry -
 -------------------
 Temperature   298.150 Kelvin.  Pressure   1.00000 Atm.
 Atom     1 has atomic number  6 and mass  12.00000

 Molecular mass:   186.12559 amu.
 Principal axes and moments of inertia in atomic units:
                           1         2         3
     Eigenvalues --   946.498694383.584414621.48017
           X            0.99990  -0.01280  -0.00558
           Y            0.01277   0.99990  -0.00557
           Z            0.00565   0.00550   0.99997
 This molecule is an asymmetric top.
 Rotational symmetry number  1.
 Warning -- assumption of classical behavior for rotation
           may cause significant error
 Rotational temperatures (Kelvin)      0.09151     0.01976     0.01874
 Rotational constants (GHZ):           1.90676     0.41170     0.39051
 Zero-point vibrational energy     736977.1 (Joules/Mol)
                                  176.14175 (Kcal/Mol)
 Warning -- explicit consideration of  18 degrees of freedom as
           vibrations may cause significant error
 Vibrational temperatures:     36.69    77.40   120.16   218.51   249.03
          (Kelvin)            345.41   354.87   412.60   489.50   543.54
                              559.06   625.45   659.14   667.54   691.97
                              766.30   831.97   881.69  1044.99  1193.39
                             1199.14  1209.41  1261.77  1283.41  1293.81
                             1305.96  1337.70  1357.07  1410.92  1439.82
                             1482.80  1502.55  1520.80  1532.48  1540.96
                             1601.68  1651.53  1661.06  1683.41  1690.30
                             1712.74  1741.92  1747.12  1775.74  1795.98
                             1853.64  1875.66  1897.24  1915.43  1929.62
                             1945.63  1958.57  1987.40  1993.87  2002.30
                             2015.55  2019.92  2025.43  2038.10  2060.02
                             2068.16  2123.59  2130.80  2132.35  2150.36
                             2151.49  2160.54  2171.08  2178.85  4340.61
                             4345.80  4394.55  4397.32  4408.02  4415.59
                             4418.89  4421.34  4426.28  4440.84  4479.92
                             4483.57  4488.05  4490.38  4504.38  4504.74
                             4508.61  4512.19

 Zero-point correction=                           0.280700 (Hartree/Particle)
 Thermal correction to Energy=                    0.292468
 Thermal correction to Enthalpy=                  0.293413
 Thermal correction to Gibbs Free Energy=         0.241840
 Sum of electronic and zero-point Energies=           -617.223938
 Sum of electronic and thermal Energies=              -617.212170
 Sum of electronic and thermal Enthalpies=            -617.211225
 Sum of electronic and thermal Free Energies=         -617.262798

                     E (Thermal)             CV                S
                      KCal/Mol        Cal/Mol-Kelvin    Cal/Mol-Kelvin
 Total                  183.527             46.678            108.544
 Electronic               0.000              0.000              0.000
 Translational            0.889              2.981             41.570
 Rotational               0.889              2.981             31.328
 Vibrational            181.749             40.716             35.646
 Vibration     1          0.593              1.985              6.152
 Vibration     2          0.596              1.976              4.673
 Vibration     3          0.600              1.961              3.807
 Vibration     4          0.619              1.901              2.649
 Vibration     5          0.627              1.876              2.402
 Vibration     6          0.657              1.779              1.802
 Vibration     7          0.661              1.768              1.754
 Vibration     8          0.684              1.698              1.493
 Vibration     9          0.720              1.595              1.211
 Vibration    10          0.748              1.517              1.048
 Vibration    11          0.757              1.495              1.006
 Vibration    12          0.795              1.395              0.843
 Vibration    13          0.816              1.343              0.772
 Vibration    14          0.822              1.330              0.755
 Vibration    15          0.837              1.292              0.708
 Vibration    16          0.888              1.178              0.581
 Vibration    17          0.935              1.078              0.489
 Vibration    18          0.972              1.005              0.428

 Optimization completed.
    -- Stationary point found.
 Normal termination of Gaussian 16 at Sun Nov  4 22:58:10 2018.
