 Gaussian 16, Revision A.03,
 Gaussian 16:  ES64L-G16RevA.03 25-Dec-2016

 ----------------------------------------------------------------------
 #M062X/6-311++G(2d,2p) opt=ModRedundant freq=noraman SCRF=(Solvent=Wat
 er)
 ----------------------------------------------------------------------

 ----------------------------
 D_1a_4e_D_PSI.inp_extract_23
 ----------------------------
 Symbolic Z-matrix:
 Charge =  0 Multiplicity = 1

 SCF Done:  E(RM062X) =  -617.496962521     A.U. after   13 cycles
 SCF Done:  E(RM062X) =  -617.498602679     A.U. after   11 cycles
 SCF Done:  E(RM062X) =  -617.498850872     A.U. after   11 cycles
 SCF Done:  E(RM062X) =  -617.499033822     A.U. after   10 cycles
 SCF Done:  E(RM062X) =  -617.499144541     A.U. after   10 cycles
 SCF Done:  E(RM062X) =  -617.499187670     A.U. after   10 cycles
 SCF Done:  E(RM062X) =  -617.499193799     A.U. after   10 cycles
 SCF Done:  E(RM062X) =  -617.499199506     A.U. after    9 cycles
 SCF Done:  E(RM062X) =  -617.499201042     A.U. after    9 cycles
 Optimization completed.
    -- Stationary point found.
 Normal termination of Gaussian 16 at Sun Nov  4 22:12:19 2018.

 ----------------------------------------------------------------------
 #N Geom=AllCheck Guess=TCheck SCRF=Check GenChk RM062X/6-311++G(2d,2p)
  Freq
 ----------------------------------------------------------------------

 Structure from the checkpoint file:  "D_1a_4e_D_PSI.inp_extract_23.chk"
 ----------------------------
 D_1a_4e_D_PSI.inp_extract_23
 ----------------------------
 Charge =  0 Multiplicity = 1

                         Standard orientation:
 ---------------------------------------------------------------------
 Center     Atomic      Atomic             Coordinates (Angstroms)
 Number     Number       Type             X           Y           Z
 ---------------------------------------------------------------------
      1          6           0       -3.524819    0.747064   -0.099533
      2          6           0       -1.050027   -0.581593    0.538061
      3          6           0        1.050608   -0.269455   -0.646447
      4          6           0       -3.272888   -0.664129   -0.628052
      5          8           0        3.240632   -1.058739   -0.030793
      6          6           0        3.638133    0.230021    0.423687
      7          6           0       -2.199089    1.456833    0.119714
      8          6           0        1.402390    1.149847   -0.218482
      9          6           0        1.855423   -1.278274    0.172349
     10          6           0        2.917214    1.332598   -0.336227
     11          8           0       -1.351004    0.719103    0.999909
     12          8           0       -0.343477   -0.554760   -0.678178
     13          6           0       -2.316367   -1.394440    0.313250
     14          1           0       -4.062548    0.695295    0.850345
     15          1           0       -4.133852    1.326107   -0.794411
     16          1           0        1.362911   -0.396879   -1.685670
     17          1           0       -4.207046   -1.217693   -0.717007
     18          1           0       -2.832135   -0.606837   -1.625237
     19          1           0        4.714809    0.284508    0.278320
     20          1           0        3.427594    0.312906    1.496970
     21          1           0       -1.687810    1.606080   -0.835210
     22          1           0       -2.336704    2.427352    0.591398
     23          1           0        1.090163    1.304985    0.816017
     24          1           0        0.865394    1.869258   -0.837025
     25          1           0        3.217606    1.292837   -1.385516
     26          1           0        3.220855    2.302933    0.057235
     27          1           0       -2.792858   -1.535784    1.285146
     28          1           0       -2.041817   -2.375349   -0.072320
     29          1           0       -0.444803   -1.019683    1.330546
     30          1           0        1.632442   -1.191677    1.241361
     31          1           0        1.635124   -2.294023   -0.152364
 ---------------------------------------------------------------------

 SCF Done:  E(RM062X) =  -617.499201042     A.U. after    1 cycles

 The electronic state is 1-A.
 Alpha  occ. eigenvalues --  -19.63322 -19.63233 -19.62716 -10.63511 -10.58875
 Alpha  occ. eigenvalues --  -10.58228 -10.58094 -10.57639 -10.53232 -10.53015
 Alpha  occ. eigenvalues --  -10.52961 -10.52951 -10.52810  -1.19833  -1.16683
 Alpha  occ. eigenvalues --   -1.13344  -0.90944  -0.89604  -0.87146  -0.84714
 Alpha  occ. eigenvalues --   -0.74884  -0.74049  -0.73014  -0.70801  -0.66887
 Alpha  occ. eigenvalues --   -0.62552  -0.60326  -0.58856  -0.56611  -0.55242
 Alpha  occ. eigenvalues --   -0.54527  -0.53121  -0.52265  -0.50333  -0.49967
 Alpha  occ. eigenvalues --   -0.48972  -0.46759  -0.46140  -0.45401  -0.44897
 Alpha  occ. eigenvalues --   -0.44165  -0.42581  -0.40528  -0.40191  -0.39829
 Alpha  occ. eigenvalues --   -0.38422  -0.37691  -0.36993  -0.34823  -0.32970
 Alpha  occ. eigenvalues --   -0.31780
 Alpha virt. eigenvalues --   -0.00053   0.00728   0.00839   0.01071   0.02198
 Alpha virt. eigenvalues --    0.02528   0.02648   0.03399   0.03529   0.04382
 Alpha virt. eigenvalues --    0.04695   0.04925   0.05670   0.05885   0.06912

 Mulliken charges:
               1
     1  C   -0.421728
     2  C   -0.038998
     3  C   -0.216079
     4  C   -0.285702
     5  O   -0.336923
     6  C   -0.172516
     7  C   -0.072040
     8  C   -0.163096
     9  C   -0.235758
    10  C   -0.524122
    11  O   -0.244111
    12  O   -0.304197
    13  C   -0.409737
    14  H    0.164027
    15  H    0.171412
    16  H    0.253432
    17  H    0.186874
    18  H    0.177052
    19  H    0.221373
    20  H    0.132590
    21  H    0.132728
    22  H    0.202410
    23  H    0.226860
    24  H    0.180449
    25  H    0.175314
    26  H    0.167017
    27  H    0.189423
    28  H    0.179145
    29  H    0.259249
    30  H    0.204652
    31  H    0.200998
 Sum of Mulliken charges =  -0.00000

 Dipole moment (field-independent basis, Debye):
    X=             -1.1674    Y=              1.2107    Z=              0.3218  Tot=              1.7124
 Quadrupole moment (field-independent basis, Debye-Ang):
   XX=            -78.3191   YY=            -78.6818   ZZ=            -81.9784
   XY=              6.5159   XZ=              2.5104   YZ=             -3.2970

  Exact polarizability: 174.971   1.508 160.822   0.017  -0.994 148.162
 Approx polarizability: 146.497   0.143 143.024  -1.239   0.532 142.294

 ******    1 imaginary frequencies (negative Signs) ******

                      1                      2                      3
                      A                      A                      A
 Frequencies --    -34.3862                76.1279                97.0565
 Red. masses --      3.4821                 3.8326                 3.3906
 Frc consts  --      0.0024                 0.0131                 0.0188
 IR Inten    --      0.9703                 0.8118                 2.4976

                      4                      5                      6
                      A                      A                      A
 Frequencies --    139.0692               191.3915               226.8610
 Red. masses --      3.1113                 3.1236                 3.5241
 Frc consts  --      0.0355                 0.0674                 0.1069
 IR Inten    --      1.8694                 2.5499                 2.9492

                      7                      8                      9
                      A                      A                      A
 Frequencies --    249.6679               296.0728               326.3858
 Red. masses --      2.0077                 2.1597                 3.0214
 Frc consts  --      0.0737                 0.1115                 0.1896
 IR Inten    --      5.4798                 0.1942                 9.8225

                     10                     11                     12
                      A                      A                      A
 Frequencies --    370.4199               386.8972               431.8103
 Red. masses --      2.3930                 2.6483                 3.3471
 Frc consts  --      0.1935                 0.2336                 0.3677
 IR Inten    --     14.2016                16.6975                 9.1520

                     13                     14                     15
                      A                      A                      A
 Frequencies --    436.6729               462.5263               488.3081
 Red. masses --      2.6245                 3.3925                 2.7531
 Frc consts  --      0.2949                 0.4276                 0.3868
 IR Inten    --      1.8605                 1.4393                 2.0854

                     16                     17                     18
                      A                      A                      A
 Frequencies --    540.9901               570.7485               639.9910
 Red. masses --      1.9863                 2.4319                 4.1711
 Frc consts  --      0.3425                 0.4667                 1.0066
 IR Inten    --      7.3228                 9.3838                 7.2521

                     19                     20                     21
                      A                      A                      A
 Frequencies --    709.5939               819.3203               835.8577
 Red. masses --      2.8724                 2.0391                 1.5971
 Frc consts  --      0.8522                 0.8065                 0.6574
 IR Inten    --      1.2897                 1.4067                 2.1053

                     22                     23                     24
                      A                      A                      A
 Frequencies --    843.8888               874.3007               887.9846
 Red. masses --      3.3655                 1.4025                 2.4502
 Frc consts  --      1.4121                 0.6317                 1.1383
 IR Inten    --      9.1465                10.9657                13.8775

                     25                     26                     27
                      A                      A                      A
 Frequencies --    895.1524               904.5620               928.8079
 Red. masses --      2.4211                 2.3072                 1.7879
 Frc consts  --      1.1430                 1.1123                 0.9087
 IR Inten    --     18.2909                22.7346                38.4105

                     28                     29                     30
                      A                      A                      A
 Frequencies --    944.5577               977.8000               996.9166
 Red. masses --      2.3554                 1.6398                 1.7393
 Frc consts  --      1.2381                 0.9237                 1.0185
 IR Inten    --     36.9039                54.9267                 8.3344

                     31                     32                     33
                      A                      A                      A
 Frequencies --   1009.3962              1042.7227              1050.5229
 Red. masses --      2.2205                 2.1449                 1.7351
 Frc consts  --      1.3330                 1.3741                 1.1282
 IR Inten    --     47.6770                67.2521                18.8440

                     34                     35                     36
                      A                      A                      A
 Frequencies --   1064.2103              1070.8539              1121.7666
 Red. masses --      1.5378                 2.2699                 4.4463
 Frc consts  --      1.0261                 1.5336                 3.2965
 IR Inten    --     71.5195                12.1842               275.0161

                     37                     38                     39
                      A                      A                      A
 Frequencies --   1143.6290              1149.7358              1161.1064
 Red. masses --      2.8818                 2.2326                 2.9134
 Frc consts  --      2.2207                 1.7389                 2.3142
 IR Inten    --     72.6197                35.1830                83.3337

                     40                     41                     42
                      A                      A                      A
 Frequencies --   1173.3188              1194.1065              1208.7184
 Red. masses --      3.6839                 2.4377                 1.4520
 Frc consts  --      2.9880                 2.0479                 1.2498
 IR Inten    --    137.4666                78.7744                35.0067

                     43                     44                     45
                      A                      A                      A
 Frequencies --   1214.2672              1233.6576              1250.2825
 Red. masses --      1.4687                 1.6528                 1.5414
 Frc consts  --      1.2759                 1.4820                 1.4197
 IR Inten    --     10.5262                57.6946                10.3420

                     46                     47                     48
                      A                      A                      A
 Frequencies --   1286.7318              1305.7328              1319.4494
 Red. masses --      1.2129                 1.1763                 1.1534
 Frc consts  --      1.1832                 1.1816                 1.1831
 IR Inten    --     12.5276                13.1806                 7.7845

                     49                     50                     51
                      A                      A                      A
 Frequencies --   1334.8876              1342.5081              1358.4908
 Red. masses --      1.3409                 1.2710                 1.3499
 Frc consts  --      1.4078                 1.3497                 1.4678
 IR Inten    --      7.1613                14.3599                 5.7923

                     52                     53                     54
                      A                      A                      A
 Frequencies --   1370.0417              1381.5493              1386.3524
 Red. masses --      1.3098                 1.4231                 1.4657
 Frc consts  --      1.4485                 1.6004                 1.6597
 IR Inten    --     18.6746                 2.0161                 0.8954

                     55                     56                     57
                      A                      A                      A
 Frequencies --   1392.0495              1398.1234              1400.6501
 Red. masses --      1.7104                 1.3084                 1.3974
 Frc consts  --      1.9527                 1.5069                 1.6152
 IR Inten    --      7.8722                 2.2937                21.8772

                     58                     59                     60
                      A                      A                      A
 Frequencies --   1413.9301              1418.0144              1434.0036
 Red. masses --      1.3380                 1.3696                 1.3475
 Frc consts  --      1.5761                 1.6226                 1.6326
 IR Inten    --     21.5299                 2.1193                18.0853

                     61                     62                     63
                      A                      A                      A
 Frequencies --   1438.6050              1476.5203              1481.3224
 Red. masses --      1.3011                 1.1042                 1.0924
 Frc consts  --      1.5865                 1.4184                 1.4124
 IR Inten    --     11.0840                 4.5893                 7.8270

                     64                     65                     66
                      A                      A                      A
 Frequencies --   1482.6768              1494.8801              1495.8689
 Red. masses --      1.0855                 1.1070                 1.1148
 Frc consts  --      1.4059                 1.4576                 1.4697
 IR Inten    --      8.1177                 6.3964                15.7650

                     67                     68                     69
                      A                      A                      A
 Frequencies --   1501.4854              1509.4530              1515.1203
 Red. masses --      1.0840                 1.0939                 1.1020
 Frc consts  --      1.4399                 1.4685                 1.4905
 IR Inten    --      0.3144                 4.0415                 8.9613

                     70                     71                     72
                      A                      A                      A
 Frequencies --   3021.1250              3034.0581              3056.6934
 Red. masses --      1.0705                 1.0673                 1.0686
 Frc consts  --      5.7565                 5.7890                 5.8828
 IR Inten    --     67.9578                48.5587                38.6368

                     73                     74                     75
                      A                      A                      A
 Frequencies --   3063.7984              3068.4895              3068.8929
 Red. masses --      1.0624                 1.0751                 1.0666
 Frc consts  --      5.8756                 5.9643                 5.9183
 IR Inten    --     53.6342                45.8044                 6.0933

                     76                     77                     78
                      A                      A                      A
 Frequencies --   3072.4196              3077.9738              3078.3161
 Red. masses --      1.0625                 1.0628                 1.0649
 Frc consts  --      5.9096                 5.9326                 5.9453
 IR Inten    --     30.4447                34.4188                37.0615

                     79                     80                     81
                      A                      A                      A
 Frequencies --   3112.5423              3116.0693              3117.0348
 Red. masses --      1.0963                 1.0911                 1.0973
 Frc consts  --      6.2578                 6.2420                 6.2817
 IR Inten    --     64.5864                40.1707                22.3844

                     82                     83                     84
                      A                      A                      A
 Frequencies --   3118.8952              3125.2865              3129.2562
 Red. masses --      1.1011                 1.1044                 1.0981
 Frc consts  --      6.3107                 6.3554                 6.3357
 IR Inten    --     84.3056                37.3618                46.2690

                     85                     86                     87
                      A                      A                      A
 Frequencies --   3131.1245              3134.4534              3135.2464
 Red. masses --      1.1029                 1.0993                 1.0952
 Frc consts  --      6.3707                 6.3632                 6.3429
 IR Inten    --     40.0017                48.1085                46.8242

 - Thermochemistry -
 -------------------
 Temperature   298.150 Kelvin.  Pressure   1.00000 Atm.
 Atom     1 has atomic number  6 and mass  12.00000

 Molecular mass:   186.12559 amu.
 Principal axes and moments of inertia in atomic units:
                           1         2         3
     Eigenvalues --   917.163824134.580134612.40118
           X            0.99992   0.01168   0.00476
           Y           -0.01155   0.99956  -0.02732
           Z           -0.00508   0.02726   0.99962
 This molecule is an asymmetric top.
 Rotational symmetry number  1.
 Warning -- assumption of classical behavior for rotation
           may cause significant error
 Rotational temperatures (Kelvin)      0.09444     0.02095     0.01878
 Rotational constants (GHZ):           1.96774     0.43650     0.39128
    1 imaginary frequencies ignored.
 Zero-point vibrational energy     737127.9 (Joules/Mol)
                                  176.17779 (Kcal/Mol)
 Warning -- explicit consideration of  16 degrees of freedom as
           vibrations may cause significant error
 Vibrational temperatures:    109.53   139.64   200.09   275.37   326.40
          (Kelvin)            359.22   425.98   469.60   532.95   556.66
                              621.28   628.27   665.47   702.57   778.36
                              821.18   920.80  1020.95  1178.82  1202.61
                             1214.17  1257.92  1277.61  1287.92  1301.46
                             1336.35  1359.01  1406.84  1434.34  1452.30
                             1500.25  1511.47  1531.16  1540.72  1613.97
                             1645.43  1654.21  1670.57  1688.14  1718.05
                             1739.08  1747.06  1774.96  1798.88  1851.32
                             1878.66  1898.39  1920.61  1931.57  1954.57
                             1971.18  1987.74  1994.65  2002.85  2011.59
                             2015.22  2034.33  2040.21  2063.21  2069.83
                             2124.38  2131.29  2133.24  2150.80  2152.22
                             2160.30  2171.77  2179.92  4346.73  4365.33
                             4397.90  4408.12  4414.87  4415.45  4420.53
                             4428.52  4429.01  4478.25  4483.33  4484.72
                             4487.39  4496.59  4502.30  4504.99  4509.78
                             4510.92

 Zero-point correction=                           0.280757 (Hartree/Particle)
 Thermal correction to Energy=                    0.291604
 Thermal correction to Enthalpy=                  0.292548
 Thermal correction to Gibbs Free Energy=         0.244328
 Sum of electronic and zero-point Energies=           -617.218444
 Sum of electronic and thermal Energies=              -617.207597
 Sum of electronic and thermal Enthalpies=            -617.206653
 Sum of electronic and thermal Free Energies=         -617.254873

                     E (Thermal)             CV                S
                      KCal/Mol        Cal/Mol-Kelvin    Cal/Mol-Kelvin
 Total                  182.984             44.779            101.487
 Electronic               0.000              0.000              0.000
 Translational            0.889              2.981             41.570
 Rotational               0.889              2.981             31.237
 Vibrational            181.207             38.817             28.680
 Vibration     1          0.599              1.965              3.988
 Vibration     2          0.603              1.951              3.513
 Vibration     3          0.615              1.914              2.817
 Vibration     4          0.634              1.852              2.214
 Vibration     5          0.651              1.800              1.904
 Vibration     6          0.662              1.763              1.733
 Vibration     7          0.690              1.681              1.439
 Vibration     8          0.710              1.623              1.278
 Vibration     9          0.742              1.533              1.078
 Vibration    10          0.755              1.498              1.012
 Vibration    11          0.793              1.401              0.853
 Vibration    12          0.797              1.390              0.837
 Vibration    13          0.820              1.333              0.759
 Vibration    14          0.844              1.276              0.688
 Vibration    15          0.896              1.159              0.563
 Vibration    16          0.927              1.095              0.503

 Optimization completed.
    -- Stationary point found.
 Normal termination of Gaussian 16 at Sun Nov  4 23:05:05 2018.
