 Gaussian 16, Revision A.03,
 Gaussian 16:  ES64L-G16RevA.03 25-Dec-2016

 ----------------------------------------------------------------------
 #M062X/6-311++G(2d,2p) opt=ModRedundant freq=noraman SCRF=(Solvent=Wat
 er)
 ----------------------------------------------------------------------

 ---------------------------
 D_1a_4e_D_PSI.inp_extract_8
 ---------------------------
 Symbolic Z-matrix:
 Charge =  0 Multiplicity = 1

 SCF Done:  E(RM062X) =  -617.502734230     A.U. after   12 cycles
 SCF Done:  E(RM062X) =  -617.504460972     A.U. after   11 cycles
 SCF Done:  E(RM062X) =  -617.504634193     A.U. after   10 cycles
 SCF Done:  E(RM062X) =  -617.504672623     A.U. after   10 cycles
 SCF Done:  E(RM062X) =  -617.504679808     A.U. after    8 cycles
 SCF Done:  E(RM062X) =  -617.504681167     A.U. after    8 cycles
 SCF Done:  E(RM062X) =  -617.504681404     A.U. after    7 cycles
 Optimization completed.
    -- Stationary point found.
 Normal termination of Gaussian 16 at Sun Nov  4 22:00:09 2018.

 ----------------------------------------------------------------------
 #N Geom=AllCheck Guess=TCheck SCRF=Check GenChk RM062X/6-311++G(2d,2p)
  Freq
 ----------------------------------------------------------------------

 Structure from the checkpoint file:  "D_1a_4e_D_PSI.inp_extract_8.chk"
 ---------------------------
 D_1a_4e_D_PSI.inp_extract_8
 ---------------------------
 Charge =  0 Multiplicity = 1

                         Standard orientation:
 ---------------------------------------------------------------------
 Center     Atomic      Atomic             Coordinates (Angstroms)
 Number     Number       Type             X           Y           Z
 ---------------------------------------------------------------------
      1          6           0        3.433417   -0.776822    0.518769
      2          6           0        1.240453    0.955765   -0.152550
      3          6           0       -0.931026   -0.033572    0.024206
      4          6           0        3.164237   -0.448182   -0.948758
      5          8           0       -2.942200   -1.389922   -0.020776
      6          6           0       -3.780377   -0.243395   -0.094238
      7          6           0        2.141998   -0.679178    1.312725
      8          6           0       -1.766888    1.240567    0.014144
      9          6           0       -1.696463   -1.164343   -0.649630
     10          6           0       -3.145796    0.945240    0.608041
     11          8           0        1.546062    0.612947    1.179590
     12          8           0        0.283186    0.082986   -0.704698
     13          6           0        2.467494    0.907933   -1.048115
     14          1           0        4.157259   -0.069388    0.930506
     15          1           0        3.849315   -1.778711    0.628805
     16          1           0       -0.716776   -0.323106    1.057182
     17          1           0        4.092219   -0.435088   -1.519307
     18          1           0        2.525712   -1.219916   -1.382534
     19          1           0       -4.722901   -0.523878    0.370841
     20          1           0       -3.969730   -0.003069   -1.147556
     21          1           0        1.433371   -1.442716    0.977188
     22          1           0        2.312981   -0.813200    2.378375
     23          1           0       -1.869250    1.576242   -1.021932
     24          1           0       -1.277770    2.035731    0.576031
     25          1           0       -3.050251    0.716448    1.671613
     26          1           0       -3.796416    1.814921    0.516273
     27          1           0        3.144623    1.698080   -0.718961
     28          1           0        2.165207    1.131206   -2.070583
     29          1           0        0.838379    1.968123   -0.091583
     30          1           0       -1.845791   -0.912727   -1.707306
     31          1           0       -1.128864   -2.091111   -0.587551
 ---------------------------------------------------------------------

 SCF Done:  E(RM062X) =  -617.504681404     A.U. after    1 cycles

 The electronic state is 1-A.
 Alpha  occ. eigenvalues --  -19.63380 -19.63171 -19.63133 -10.63510 -10.58616
 Alpha  occ. eigenvalues --  -10.58106 -10.58069 -10.57886 -10.53354 -10.53281
 Alpha  occ. eigenvalues --  -10.53094 -10.52999 -10.52909  -1.20279  -1.16721
 Alpha  occ. eigenvalues --   -1.13486  -0.91059  -0.89709  -0.87609  -0.84425
 Alpha  occ. eigenvalues --   -0.75162  -0.73991  -0.72675  -0.70772  -0.65710
 Alpha  occ. eigenvalues --   -0.64127  -0.59999  -0.58755  -0.57531  -0.55978
 Alpha  occ. eigenvalues --   -0.54046  -0.53265  -0.51689  -0.51023  -0.49791
 Alpha  occ. eigenvalues --   -0.48686  -0.47428  -0.46083  -0.45665  -0.45103
 Alpha  occ. eigenvalues --   -0.43859  -0.41867  -0.41381  -0.40612  -0.39400
 Alpha  occ. eigenvalues --   -0.38422  -0.37957  -0.36448  -0.34798  -0.33430
 Alpha  occ. eigenvalues --   -0.32392
 Alpha virt. eigenvalues --   -0.00072   0.00777   0.00921   0.00964   0.02176
 Alpha virt. eigenvalues --    0.02461   0.02668   0.03369   0.03661   0.04442
 Alpha virt. eigenvalues --    0.04595   0.04842   0.05550   0.05755   0.07136

 Mulliken charges:
               1
     1  C   -0.416537
     2  C   -0.057837
     3  C   -0.302965
     4  C   -0.276390
     5  O   -0.334203
     6  C   -0.179632
     7  C   -0.120368
     8  C   -0.158404
     9  C   -0.218577
    10  C   -0.395848
    11  O   -0.275583
    12  O   -0.254024
    13  C   -0.421920
    14  H    0.166910
    15  H    0.173060
    16  H    0.280036
    17  H    0.181598
    18  H    0.174875
    19  H    0.209308
    20  H    0.141104
    21  H    0.131385
    22  H    0.206517
    23  H    0.222085
    24  H    0.167879
    25  H    0.165987
    26  H    0.178946
    27  H    0.192741
    28  H    0.181193
    29  H    0.252866
    30  H    0.190498
    31  H    0.195301
 Sum of Mulliken charges =  -0.00000

 Dipole moment (field-independent basis, Debye):
    X=              0.7158    Y=              1.3943    Z=             -0.6402  Tot=              1.6930
 Quadrupole moment (field-independent basis, Debye-Ang):
   XX=            -73.2688   YY=            -81.0491   ZZ=            -81.8435
   XY=             -8.6663   XZ=             -0.1088   YZ=             -2.2669

  Exact polarizability: 175.036  -3.012 155.884  -1.892  -1.827 153.896
 Approx polarizability: 146.252  -1.002 142.925  -0.457  -1.138 142.851

 ******    1 imaginary frequencies (negative Signs) ******

                      1                      2                      3
                      A                      A                      A
 Frequencies --    -11.4774                61.0343                93.8729
 Red. masses --      3.3986                 4.0820                 3.4027
 Frc consts  --      0.0003                 0.0090                 0.0177
 IR Inten    --      1.4310                 0.8242                 0.7433

                      4                      5                      6
                      A                      A                      A
 Frequencies --    156.3465               172.4055               239.9810
 Red. masses --      3.4630                 2.8321                 2.9350
 Frc consts  --      0.0499                 0.0496                 0.0996
 IR Inten    --      0.7202                 2.4945                 3.6725

                      7                      8                      9
                      A                      A                      A
 Frequencies --    244.3077               283.8318               344.9861
 Red. masses --      2.0131                 2.6393                 2.4606
 Frc consts  --      0.0708                 0.1253                 0.1725
 IR Inten    --      8.3381                 5.0857                 2.1330

                     10                     11                     12
                      A                      A                      A
 Frequencies --    375.0504               384.2794               434.4873
 Red. masses --      2.5806                 2.2749                 3.3950
 Frc consts  --      0.2139                 0.1979                 0.3776
 IR Inten    --     12.3376                22.7959                 6.9752

                     13                     14                     15
                      A                      A                      A
 Frequencies --    453.8119               464.5625               484.0036
 Red. masses --      3.6195                 3.0851                 2.5139
 Frc consts  --      0.4392                 0.3923                 0.3470
 IR Inten    --      4.1595                 2.5130                 4.4194

                     16                     17                     18
                      A                      A                      A
 Frequencies --    533.1088               577.3983               623.9998
 Red. masses --      2.2428                 2.3439                 2.8669
 Frc consts  --      0.3756                 0.4604                 0.6577
 IR Inten    --      3.2760                11.7607                 3.5598

                     19                     20                     21
                      A                      A                      A
 Frequencies --    725.8947               826.9101               833.3064
 Red. masses --      3.0838                 2.1161                 1.6079
 Frc consts  --      0.9574                 0.8525                 0.6578
 IR Inten    --      5.3884                 1.2740                 2.1181

                     22                     23                     24
                      A                      A                      A
 Frequencies --    840.2615               877.1764               892.1239
 Red. masses --      3.2365                 1.4121                 2.3545
 Frc consts  --      1.3463                 0.6402                 1.1041
 IR Inten    --      7.7224                14.3342                 7.2684

                     25                     26                     27
                      A                      A                      A
 Frequencies --    899.1243               911.2157               929.0198
 Red. masses --      2.4587                 2.4602                 1.6284
 Frc consts  --      1.1711                 1.2036                 0.8281
 IR Inten    --     23.7301                17.8203                25.2704

                     28                     29                     30
                      A                      A                      A
 Frequencies --    943.5600               980.4617              1000.9894
 Red. masses --      2.1804                 2.3549                 1.4630
 Frc consts  --      1.1437                 1.3338                 0.8637
 IR Inten    --     41.5945                52.8888                 9.2846

                     31                     32                     33
                      A                      A                      A
 Frequencies --   1028.9797              1043.7822              1060.1165
 Red. masses --      2.2052                 2.3791                 1.6759
 Frc consts  --      1.3757                 1.5271                 1.1097
 IR Inten    --     18.1595                98.4105                24.8062

                     34                     35                     36
                      A                      A                      A
 Frequencies --   1064.7204              1072.4331              1115.1151
 Red. masses --      1.5449                 2.2705                 4.5372
 Frc consts  --      1.0319                 1.5386                 3.3241
 IR Inten    --     57.1962                15.4639               235.4164

                     37                     38                     39
                      A                      A                      A
 Frequencies --   1146.7064              1155.7486              1176.0991
 Red. masses --      2.2912                 2.9501                 2.7560
 Frc consts  --      1.7751                 2.3218                 2.2461
 IR Inten    --     11.0695               135.5206               107.8452

                     40                     41                     42
                      A                      A                      A
 Frequencies --   1178.1619              1188.1272              1210.6088
 Red. masses --      3.0219                 2.5579                 1.4978
 Frc consts  --      2.4714                 2.1275                 1.2934
 IR Inten    --    109.1898                56.1009                47.0374

                     43                     44                     45
                      A                      A                      A
 Frequencies --   1215.3503              1233.7576              1247.6098
 Red. masses --      1.4535                 1.6328                 1.4736
 Frc consts  --      1.2649                 1.4644                 1.3514
 IR Inten    --     22.1456                60.8715                17.2139

                     46                     47                     48
                      A                      A                      A
 Frequencies --   1289.2125              1301.8004              1321.1077
 Red. masses --      1.2165                 1.1725                 1.1479
 Frc consts  --      1.1913                 1.1707                 1.1804
 IR Inten    --     20.7538                14.7028                 7.3964

                     49                     50                     51
                      A                      A                      A
 Frequencies --   1329.8805              1343.2521              1350.9050
 Red. masses --      1.2868                 1.2555                 1.2610
 Frc consts  --      1.3409                 1.3347                 1.3559
 IR Inten    --      7.6200                 3.8622                 8.7949

                     52                     53                     54
                      A                      A                      A
 Frequencies --   1361.2029              1381.3230              1385.1438
 Red. masses --      1.3506                 1.3985                 1.4750
 Frc consts  --      1.4744                 1.5722                 1.6674
 IR Inten    --      4.6843                 8.9264                 0.7456

                     55                     56                     57
                      A                      A                      A
 Frequencies --   1390.7579              1399.3218              1405.4249
 Red. masses --      1.6119                 1.2967                 1.4523
 Frc consts  --      1.8369                 1.4960                 1.6902
 IR Inten    --      5.1066                20.6539                11.2188

                     58                     59                     60
                      A                      A                      A
 Frequencies --   1414.1565              1417.4236              1433.2330
 Red. masses --      1.4165                 1.4082                 1.5035
 Frc consts  --      1.6690                 1.6669                 1.8197
 IR Inten    --     18.5534                 3.5609                 4.3270

                     61                     62                     63
                      A                      A                      A
 Frequencies --   1434.6381              1476.1392              1479.4756
 Red. masses --      1.3664                 1.1039                 1.0920
 Frc consts  --      1.6569                 1.4172                 1.4082
 IR Inten    --     18.3650                 4.9769                 8.3651

                     64                     65                     66
                      A                      A                      A
 Frequencies --   1482.0200              1494.6288              1495.2372
 Red. masses --      1.0852                 1.1107                 1.1115
 Frc consts  --      1.4043                 1.4619                 1.4641
 IR Inten    --      8.0037                12.6705                11.9789

                     67                     68                     69
                      A                      A                      A
 Frequencies --   1502.2831              1509.1383              1515.2731
 Red. masses --      1.0855                 1.0932                 1.1013
 Frc consts  --      1.4433                 1.4669                 1.4898
 IR Inten    --      0.7454                 3.7514                 8.7353

                     70                     71                     72
                      A                      A                      A
 Frequencies --   3018.3737              3021.8166              3047.8097
 Red. masses --      1.0689                 1.0704                 1.0693
 Frc consts  --      5.7375                 5.7589                 5.8525
 IR Inten    --     37.1664                92.4368                54.8297

                     73                     74                     75
                      A                      A                      A
 Frequencies --   3052.9868              3063.5238              3064.1537
 Red. masses --      1.0704                 1.0664                 1.0741
 Frc consts  --      5.8780                 5.8965                 5.9416
 IR Inten    --      4.9944                47.3976                46.7004

                     76                     77                     78
                      A                      A                      A
 Frequencies --   3071.3958              3074.2499              3078.2455
 Red. masses --      1.0626                 1.0633                 1.0642
 Frc consts  --      5.9059                 5.9209                 5.9411
 IR Inten    --     51.6310                25.1295                11.8668

                     79                     80                     81
                      A                      A                      A
 Frequencies --   3092.2289              3114.8467              3118.6907
 Red. masses --      1.0841                 1.0979                 1.0968
 Frc consts  --      6.1076                 6.2760                 6.2852
 IR Inten    --     74.9932                40.3872                42.7150

                     82                     83                     84
                      A                      A                      A
 Frequencies --   3120.6418              3122.2519              3129.5328
 Red. masses --      1.1023                 1.1022                 1.0954
 Frc consts  --      6.3246                 6.3308                 6.3208
 IR Inten    --     66.5515                48.4935                37.6128

                     85                     86                     87
                      A                      A                      A
 Frequencies --   3131.0884              3134.6595              3135.6929
 Red. masses --      1.1035                 1.0951                 1.0974
 Frc consts  --      6.3738                 6.3401                 6.3576
 IR Inten    --     43.2808                40.1887                48.5716

 - Thermochemistry -
 -------------------
 Temperature   298.150 Kelvin.  Pressure   1.00000 Atm.
 Atom     1 has atomic number  6 and mass  12.00000

 Molecular mass:   186.12559 amu.
 Principal axes and moments of inertia in atomic units:
                           1         2         3
     Eigenvalues --   950.905024376.207524503.90542
           X            0.99988  -0.01499  -0.00259
           Y            0.01483   0.99845  -0.05356
           Z            0.00339   0.05351   0.99856
 This molecule is an asymmetric top.
 Rotational symmetry number  1.
 Warning -- assumption of classical behavior for rotation
           may cause significant error
 Rotational temperatures (Kelvin)      0.09109     0.01979     0.01923
 Rotational constants (GHZ):           1.89792     0.41240     0.40071
    1 imaginary frequencies ignored.
 Zero-point vibrational energy     737079.1 (Joules/Mol)
                                  176.16612 (Kcal/Mol)
 Warning -- explicit consideration of  16 degrees of freedom as
           vibrations may cause significant error
 Vibrational temperatures:     87.81   135.06   224.95   248.05   345.28
          (Kelvin)            351.50   408.37   496.36   539.61   552.89
                              625.13   652.93   668.40   696.37   767.02
                              830.75   897.80  1044.40  1189.74  1198.94
                             1208.95  1262.06  1283.57  1293.64  1311.04
                             1336.65  1357.57  1410.67  1440.20  1480.47
                             1501.77  1525.27  1531.90  1542.99  1604.40
                             1649.85  1662.86  1692.14  1695.11  1709.45
                             1741.80  1748.62  1775.10  1795.03  1854.89
                             1873.00  1900.78  1913.40  1932.64  1943.65
                             1958.47  1987.42  1992.91  2000.99  2013.31
                             2022.09  2034.66  2039.36  2062.10  2064.12
                             2123.84  2128.64  2132.30  2150.44  2151.31
                             2161.45  2171.31  2180.14  4342.77  4347.72
                             4385.12  4392.57  4407.73  4408.63  4419.05
                             4423.16  4428.91  4449.03  4481.57  4487.10
                             4489.91  4492.22  4502.70  4504.94  4510.08
                             4511.56

 Zero-point correction=                           0.280739 (Hartree/Particle)
 Thermal correction to Energy=                    0.291582
 Thermal correction to Enthalpy=                  0.292526
 Thermal correction to Gibbs Free Energy=         0.244125
 Sum of electronic and zero-point Energies=           -617.223943
 Sum of electronic and thermal Energies=              -617.213100
 Sum of electronic and thermal Enthalpies=            -617.212156
 Sum of electronic and thermal Free Energies=         -617.260557

                     E (Thermal)             CV                S
                      KCal/Mol        Cal/Mol-Kelvin    Cal/Mol-Kelvin
 Total                  182.970             44.663            101.869
 Electronic               0.000              0.000              0.000
 Translational            0.889              2.981             41.570
 Rotational               0.889              2.981             31.306
 Vibrational            181.193             38.702             28.993
 Vibration     1          0.597              1.973              4.423
 Vibration     2          0.603              1.954              3.578
 Vibration     3          0.620              1.896              2.594
 Vibration     4          0.626              1.876              2.409
 Vibration     5          0.657              1.779              1.803
 Vibration     6          0.660              1.772              1.771
 Vibration     7          0.682              1.704              1.510
 Vibration     8          0.723              1.585              1.189
 Vibration     9          0.746              1.523              1.059
 Vibration    10          0.753              1.504              1.022
 Vibration    11          0.795              1.395              0.844
 Vibration    12          0.812              1.352              0.784
 Vibration    13          0.822              1.329              0.753
 Vibration    14          0.840              1.286              0.699
 Vibration    15          0.888              1.177              0.580
 Vibration    16          0.934              1.080              0.490

 Optimization completed.
    -- Stationary point found.
 Normal termination of Gaussian 16 at Sun Nov  4 22:51:45 2018.
