 Gaussian 16, Revision A.03,
 Gaussian 16:  ES64L-G16RevA.03 25-Dec-2016

 ----------------------------------------------------------------------
 #M062X/6-311++G(2d,2p) opt=ModRedundant freq=noraman SCRF=(Solvent=Wat
 er)
 ----------------------------------------------------------------------

 ----------------------------
 D_1a_4e_D_PSI.inp_extract_16
 ----------------------------
 Symbolic Z-matrix:
 Charge =  0 Multiplicity = 1

 SCF Done:  E(RM062X) =  -617.501153337     A.U. after   12 cycles
 SCF Done:  E(RM062X) =  -617.502836335     A.U. after   12 cycles
 SCF Done:  E(RM062X) =  -617.503195568     A.U. after   10 cycles
 SCF Done:  E(RM062X) =  -617.503345240     A.U. after   10 cycles
 SCF Done:  E(RM062X) =  -617.503359454     A.U. after    9 cycles
 SCF Done:  E(RM062X) =  -617.503360525     A.U. after    8 cycles
 Optimization completed.
    -- Stationary point found.
 Normal termination of Gaussian 16 at Sun Nov  4 21:57:19 2018.

 ----------------------------------------------------------------------
 #N Geom=AllCheck Guess=TCheck SCRF=Check GenChk RM062X/6-311++G(2d,2p)
  Freq
 ----------------------------------------------------------------------

 Structure from the checkpoint file:  "D_1a_4e_D_PSI.inp_extract_16.chk"
 ----------------------------
 D_1a_4e_D_PSI.inp_extract_16
 ----------------------------
 Charge =  0 Multiplicity = 1

                         Standard orientation:
 ---------------------------------------------------------------------
 Center     Atomic      Atomic             Coordinates (Angstroms)
 Number     Number       Type             X           Y           Z
 ---------------------------------------------------------------------
      1          6           0       -3.330668   -0.534955    0.912167
      2          6           0       -1.244305    0.142909   -0.952451
      3          6           0        1.063615    0.556267   -0.426162
      4          6           0       -3.177814    0.913379    0.450738
      5          8           0        2.793030   -1.121266   -0.627564
      6          6           0        3.567946   -0.552578    0.418714
      7          6           0       -1.990007   -1.244389    0.826350
      8          6           0        1.866834    1.250506    0.661577
      9          6           0        1.402651   -0.937476   -0.425553
     10          6           0        3.354813    0.949364    0.498407
     11          8           0       -1.446703   -1.176374   -0.492775
     12          8           0       -0.306887    0.829645   -0.162714
     13          6           0       -2.540644    0.938363   -0.937909
     14          1           0       -4.049245   -1.052785    0.272275
     15          1           0       -3.701074   -0.586357    1.936435
     16          1           0        1.328396    0.964204   -1.409419
     17          1           0       -4.143126    1.417896    0.429381
     18          1           0       -2.542596    1.455127    1.154341
     19          1           0        4.604810   -0.798949    0.200247
     20          1           0        3.290957   -1.023873    1.369705
     21          1           0       -1.281240   -0.801559    1.532034
     22          1           0       -2.081086   -2.304874    1.050310
     23          1           0        1.514659    0.876117    1.627007
     24          1           0        1.674562    2.323030    0.633034
     25          1           0        3.731906    1.410134   -0.416887
     26          1           0        3.923807    1.358756    1.333146
     27          1           0       -3.216908    0.479675   -1.661519
     28          1           0       -2.333939    1.955234   -1.268620
     29          1           0       -0.861153    0.030876   -1.970020
     30          1           0        1.090923   -1.381061    0.528385
     31          1           0        0.900297   -1.465969   -1.230675
 ---------------------------------------------------------------------

 SCF Done:  E(RM062X) =  -617.503360525     A.U. after    1 cycles

 The electronic state is 1-A.
 Alpha  occ. eigenvalues --  -19.63399 -19.63076 -19.62869 -10.63584 -10.58904
 Alpha  occ. eigenvalues --  -10.58000 -10.57893 -10.57742 -10.53275 -10.53230
 Alpha  occ. eigenvalues --  -10.53071 -10.53001 -10.52858  -1.20105  -1.16541
 Alpha  occ. eigenvalues --   -1.13536  -0.91103  -0.89787  -0.87050  -0.84592
 Alpha  occ. eigenvalues --   -0.74828  -0.74012  -0.72689  -0.70968  -0.66050
 Alpha  occ. eigenvalues --   -0.63684  -0.60227  -0.58590  -0.57101  -0.56132
 Alpha  occ. eigenvalues --   -0.53496  -0.53403  -0.52518  -0.50990  -0.49617
 Alpha  occ. eigenvalues --   -0.48450  -0.46873  -0.45757  -0.45135  -0.44937
 Alpha  occ. eigenvalues --   -0.43777  -0.43221  -0.40713  -0.40195  -0.39674
 Alpha  occ. eigenvalues --   -0.38395  -0.37773  -0.36212  -0.35476  -0.33184
 Alpha  occ. eigenvalues --   -0.32058
 Alpha virt. eigenvalues --   -0.00042   0.00754   0.00788   0.01063   0.02183
 Alpha virt. eigenvalues --    0.02499   0.02672   0.03361   0.03445   0.04437
 Alpha virt. eigenvalues --    0.04711   0.04761   0.05640   0.06045   0.07113

 Mulliken charges:
               1
     1  C   -0.444465
     2  C   -0.015069
     3  C   -0.293814
     4  C   -0.280918
     5  O   -0.359958
     6  C   -0.161356
     7  C   -0.074069
     8  C   -0.113537
     9  C   -0.260961
    10  C   -0.362263
    11  O   -0.273115
    12  O   -0.271474
    13  C   -0.508690
    14  H    0.162815
    15  H    0.171780
    16  H    0.248484
    17  H    0.184087
    18  H    0.171678
    19  H    0.204795
    20  H    0.129369
    21  H    0.145369
    22  H    0.207407
    23  H    0.195272
    24  H    0.173878
    25  H    0.166298
    26  H    0.181251
    27  H    0.195932
    28  H    0.185748
    29  H    0.238648
    30  H    0.225036
    31  H    0.231842
 Sum of Mulliken charges =  -0.00000

 Dipole moment (field-independent basis, Debye):
    X=             -0.7494    Y=              1.6587    Z=              1.6058  Tot=              2.4273
 Quadrupole moment (field-independent basis, Debye-Ang):
   XX=            -74.1132   YY=            -83.9998   ZZ=            -78.1046
   XY=              3.8859   XZ=              3.9488   YZ=             -4.5777

  Exact polarizability: 175.623   1.570 155.797   0.193  -2.277 154.633
 Approx polarizability: 147.062   1.877 141.123  -0.471  -0.051 144.474

                      1                      2                      3
                      A                      A                      A
 Frequencies --     47.5814                59.1502               105.6458
 Red. masses --      3.3235                 3.9596                 3.6483
 Frc consts  --      0.0044                 0.0082                 0.0240
 IR Inten    --      1.1889                 0.1618                 1.6665

                      4                      5                      6
                      A                      A                      A
 Frequencies --    149.8320               197.3823               231.0359
 Red. masses --      3.1805                 3.2753                 2.9102
 Frc consts  --      0.0421                 0.0752                 0.0915
 IR Inten    --      1.9295                 0.9046                 6.8962

                      7                      8                      9
                      A                      A                      A
 Frequencies --    254.6409               281.9065               340.2113
 Red. masses --      2.0515                 2.7632                 3.0903
 Frc consts  --      0.0784                 0.1294                 0.2107
 IR Inten    --      4.9775                 0.1720                21.7666

                     10                     11                     12
                      A                      A                      A
 Frequencies --    362.0228               385.8498               443.4776
 Red. masses --      1.9676                 2.5475                 3.3623
 Frc consts  --      0.1519                 0.2235                 0.3896
 IR Inten    --      2.4663                17.8438                 5.9684

                     13                     14                     15
                      A                      A                      A
 Frequencies --    446.0762               463.6903               484.9826
 Red. masses --      3.5551                 3.4902                 2.1158
 Frc consts  --      0.4168                 0.4421                 0.2932
 IR Inten    --      3.1067                 0.4647                 0.9304

                     16                     17                     18
                      A                      A                      A
 Frequencies --    534.3558               574.6346               624.7508
 Red. masses --      2.1314                 2.1436                 4.1697
 Frc consts  --      0.3586                 0.4170                 0.9589
 IR Inten    --      1.0867                14.1443                 7.7263

                     19                     20                     21
                      A                      A                      A
 Frequencies --    713.8783               832.2788               835.4127
 Red. masses --      2.7812                 2.1266                 1.5999
 Frc consts  --      0.8351                 0.8679                 0.6579
 IR Inten    --      1.2278                 0.7330                 1.5598

                     22                     23                     24
                      A                      A                      A
 Frequencies --    843.5861               877.5886               893.5971
 Red. masses --      3.1881                 1.3963                 2.3065
 Frc consts  --      1.3367                 0.6336                 1.0851
 IR Inten    --      9.1022                 9.2206                18.9504

                     25                     26                     27
                      A                      A                      A
 Frequencies --    900.7000               909.1439               932.4293
 Red. masses --      2.5034                 2.4543                 1.6820
 Frc consts  --      1.1966                 1.1952                 0.8616
 IR Inten    --     30.5990                 3.6173                19.7101

                     28                     29                     30
                      A                      A                      A
 Frequencies --    946.2317               992.6358               994.3727
 Red. masses --      2.1421                 2.2247                 1.4994
 Frc consts  --      1.1300                 1.2915                 0.8735
 IR Inten    --     23.9907                39.3671                18.9786

                     31                     32                     33
                      A                      A                      A
 Frequencies --   1018.3683              1043.6936              1055.0601
 Red. masses --      2.1847                 2.2261                 1.7163
 Frc consts  --      1.3349                 1.4287                 1.1257
 IR Inten    --     73.6046                55.1424                57.1254

                     34                     35                     36
                      A                      A                      A
 Frequencies --   1064.5885              1073.4379              1120.0390
 Red. masses --      1.5132                 2.2832                 4.6696
 Frc consts  --      1.0105                 1.5501                 3.4514
 IR Inten    --     51.9010                25.1724               297.2677

                     37                     38                     39
                      A                      A                      A
 Frequencies --   1142.6633              1150.2824              1169.5708
 Red. masses --      2.4318                 2.9535                 2.4750
 Frc consts  --      1.8707                 2.3025                 1.9947
 IR Inten    --     14.5797               156.9109                32.8857

                     40                     41                     42
                      A                      A                      A
 Frequencies --   1174.6655              1189.1050              1210.6850
 Red. masses --      4.0144                 2.2830                 1.3986
 Frc consts  --      3.2636                 1.9019                 1.2079
 IR Inten    --    173.9466                28.2569                20.2812

                     43                     44                     45
                      A                      A                      A
 Frequencies --   1219.3589              1234.0564              1253.6136
 Red. masses --      1.6197                 1.6477                 1.4823
 Frc consts  --      1.4189                 1.4784                 1.3725
 IR Inten    --     18.7781                60.8594                20.1615

                     46                     47                     48
                      A                      A                      A
 Frequencies --   1288.7711              1304.5657              1319.7291
 Red. masses --      1.2169                 1.1668                 1.1538
 Frc consts  --      1.1909                 1.1700                 1.1840
 IR Inten    --     15.4932                14.7373                 7.5386

                     49                     50                     51
                      A                      A                      A
 Frequencies --   1329.9819              1335.2694              1356.6748
 Red. masses --      1.2790                 1.1826                 1.2892
 Frc consts  --      1.3329                 1.2423                 1.3981
 IR Inten    --     10.6133                 5.0442                10.7752

                     52                     53                     54
                      A                      A                      A
 Frequencies --   1362.1435              1383.9861              1385.6727
 Red. masses --      1.2973                 1.4619                 1.4666
 Frc consts  --      1.4182                 1.6498                 1.6591
 IR Inten    --      1.8821                 4.6264                 4.9111

                     55                     56                     57
                      A                      A                      A
 Frequencies --   1390.2142              1398.3120              1400.8591
 Red. masses --      1.6361                 1.2636                 1.5017
 Frc consts  --      1.8630                 1.4556                 1.7362
 IR Inten    --     11.1166                18.7732                 6.9233

                     58                     59                     60
                      A                      A                      A
 Frequencies --   1408.2704              1421.5905              1429.7275
 Red. masses --      1.3890                 1.5143                 1.3917
 Frc consts  --      1.6230                 1.8031                 1.6761
 IR Inten    --     18.2864                18.0923                20.6437

                     61                     62                     63
                      A                      A                      A
 Frequencies --   1438.6312              1475.7444              1481.4148
 Red. masses --      1.3763                 1.1060                 1.0924
 Frc consts  --      1.6782                 1.4192                 1.4125
 IR Inten    --      1.3668                 4.6435                 6.9363

                     64                     65                     66
                      A                      A                      A
 Frequencies --   1482.3688              1490.5174              1495.1184
 Red. masses --      1.0862                 1.0950                 1.1081
 Frc consts  --      1.4063                 1.4333                 1.4594
 IR Inten    --      7.8495                 9.1032                14.4440

                     67                     68                     69
                      A                      A                      A
 Frequencies --   1499.1858              1509.3916              1512.3855
 Red. masses --      1.1040                 1.0941                 1.1002
 Frc consts  --      1.4619                 1.4687                 1.4827
 IR Inten    --      2.8428                 3.5063                 7.9104

                     70                     71                     72
                      A                      A                      A
 Frequencies --   3016.3672              3021.5306              3027.8359
 Red. masses --      1.0774                 1.0709                 1.0751
 Frc consts  --      5.7755                 5.7604                 5.8073
 IR Inten    --     16.2639                56.7740               115.7376

                     73                     74                     75
                      A                      A                      A
 Frequencies --   3051.8915              3056.6323              3063.5523
 Red. masses --      1.0692                 1.0652                 1.0634
 Frc consts  --      5.8673                 5.8637                 5.8800
 IR Inten    --     56.1458                39.8668                40.7929

                     76                     77                     78
                      A                      A                      A
 Frequencies --   3067.1990              3071.2887              3072.9309
 Red. masses --      1.0804                 1.0620                 1.0638
 Frc consts  --      5.9886                 5.9020                 5.9184
 IR Inten    --     29.4653                37.2968                25.6248

                     79                     80                     81
                      A                      A                      A
 Frequencies --   3081.1306              3114.2821              3114.5516
 Red. masses --      1.0674                 1.0982                 1.0978
 Frc consts  --      5.9701                 6.2752                 6.2745
 IR Inten    --     65.6705                37.9536                42.4739

                     82                     83                     84
                      A                      A                      A
 Frequencies --   3120.1666              3120.8786              3131.5997
 Red. masses --      1.1023                 1.1026                 1.1029
 Frc consts  --      6.3226                 6.3276                 6.3728
 IR Inten    --     67.0759                49.5564                39.9815

                     85                     86                     87
                      A                      A                      A
 Frequencies --   3132.7914              3135.9147              3156.6635
 Red. masses --      1.0950                 1.0980                 1.0943
 Frc consts  --      6.3317                 6.3618                 6.4244
 IR Inten    --     48.1990                43.6245                28.3292

 - Thermochemistry -
 -------------------
 Temperature   298.150 Kelvin.  Pressure   1.00000 Atm.
 Atom     1 has atomic number  6 and mass  12.00000

 Molecular mass:   186.12559 amu.
 Principal axes and moments of inertia in atomic units:
                           1         2         3
     Eigenvalues --   968.695754167.746914457.66331
           X            0.99999   0.00428   0.00291
           Y           -0.00414   0.99893  -0.04610
           Z           -0.00311   0.04609   0.99893
 This molecule is an asymmetric top.
 Rotational symmetry number  1.
 Warning -- assumption of classical behavior for rotation
           may cause significant error
 Rotational temperatures (Kelvin)      0.08941     0.02078     0.01943
 Rotational constants (GHZ):           1.86306     0.43303     0.40486
 Zero-point vibrational energy     737115.0 (Joules/Mol)
                                  176.17471 (Kcal/Mol)
 Warning -- explicit consideration of  17 degrees of freedom as
           vibrations may cause significant error
 Vibrational temperatures:     68.46    85.10   152.00   215.57   283.99
          (Kelvin)            332.41   366.37   405.60   489.49   520.87
                              555.15   638.07   641.80   667.15   697.78
                              768.82   826.77   898.88  1027.11  1197.46
                             1201.97  1213.73  1262.65  1285.69  1295.91
                             1308.06  1341.56  1361.42  1428.18  1430.68
                             1465.20  1501.64  1518.00  1531.71  1544.44
                             1611.49  1644.04  1655.00  1682.75  1690.08
                             1710.86  1741.91  1754.39  1775.53  1803.67
                             1854.25  1876.98  1898.80  1913.55  1921.15
                             1951.95  1959.82  1991.25  1993.67  2000.21
                             2011.86  2015.52  2026.19  2045.35  2057.06
                             2069.87  2123.27  2131.43  2132.80  2144.52
                             2151.14  2156.99  2171.68  2175.99  4339.88
                             4347.31  4356.38  4390.99  4397.81  4407.77
                             4413.02  4418.90  4421.26  4433.06  4480.76
                             4481.15  4489.22  4490.25  4505.67  4507.39
                             4511.88  4541.73

 Zero-point correction=                           0.280752 (Hartree/Particle)
 Thermal correction to Energy=                    0.292407
 Thermal correction to Enthalpy=                  0.293351
 Thermal correction to Gibbs Free Energy=         0.242757
 Sum of electronic and zero-point Energies=           -617.222608
 Sum of electronic and thermal Energies=              -617.210953
 Sum of electronic and thermal Enthalpies=            -617.210009
 Sum of electronic and thermal Free Energies=         -617.260603

                     E (Thermal)             CV                S
                      KCal/Mol        Cal/Mol-Kelvin    Cal/Mol-Kelvin
 Total                  183.488             46.653            106.484
 Electronic               0.000              0.000              0.000
 Translational            0.889              2.981             41.570
 Rotational               0.889              2.981             31.265
 Vibrational            181.711             40.691             33.648
 Vibration     1          0.595              1.978              4.915
 Vibration     2          0.597              1.974              4.485
 Vibration     3          0.605              1.945              3.347
 Vibration     4          0.618              1.903              2.674
 Vibration     5          0.637              1.844              2.157
 Vibration     6          0.653              1.794              1.871
 Vibration     7          0.665              1.755              1.698
 Vibration     8          0.681              1.707              1.522
 Vibration     9          0.720              1.595              1.211
 Vibration    10          0.736              1.550              1.113
 Vibration    11          0.755              1.500              1.016
 Vibration    12          0.803              1.375              0.816
 Vibration    13          0.805              1.370              0.808
 Vibration    14          0.821              1.331              0.755
 Vibration    15          0.841              1.283              0.697
 Vibration    16          0.889              1.174              0.578
 Vibration    17          0.931              1.086              0.495

 Optimization completed.
    -- Stationary point found.
 Normal termination of Gaussian 16 at Sun Nov  4 22:52:52 2018.
