 Gaussian 16, Revision A.03,
 Gaussian 16:  ES64L-G16RevA.03 25-Dec-2016

 ----------------------------------------------------------------------
 #M062X/6-311++G(2d,2p) opt=ModRedundant freq=noraman SCRF=(Solvent=Wat
 er)
 ----------------------------------------------------------------------

 ---------------------------
 D_1a_4e_D_PSI.inp_extract_6
 ---------------------------
 Symbolic Z-matrix:
 Charge =  0 Multiplicity = 1

 SCF Done:  E(RM062X) =  -617.501422573     A.U. after   12 cycles
 SCF Done:  E(RM062X) =  -617.503221291     A.U. after   11 cycles
 SCF Done:  E(RM062X) =  -617.503389392     A.U. after   10 cycles
 SCF Done:  E(RM062X) =  -617.503480029     A.U. after    9 cycles
 SCF Done:  E(RM062X) =  -617.503482666     A.U. after    8 cycles
 SCF Done:  E(RM062X) =  -617.503483381     A.U. after    8 cycles
 Optimization completed.
    -- Stationary point found.
 Normal termination of Gaussian 16 at Sun Nov  4 21:56:19 2018.

 ----------------------------------------------------------------------
 #N Geom=AllCheck Guess=TCheck SCRF=Check GenChk RM062X/6-311++G(2d,2p)
  Freq
 ----------------------------------------------------------------------

 Structure from the checkpoint file:  "D_1a_4e_D_PSI.inp_extract_6.chk"
 ---------------------------
 D_1a_4e_D_PSI.inp_extract_6
 ---------------------------
 Charge =  0 Multiplicity = 1

                         Standard orientation:
 ---------------------------------------------------------------------
 Center     Atomic      Atomic             Coordinates (Angstroms)
 Number     Number       Type             X           Y           Z
 ---------------------------------------------------------------------
      1          6           0       -3.493406    0.166040   -0.845845
      2          6           0       -1.182878    0.220955    0.866571
      3          6           0        0.946299   -0.147630   -0.195627
      4          6           0       -3.209737   -1.029037    0.062068
      5          8           0        3.140783   -0.961946   -0.832358
      6          6           0        3.790620   -0.024099    0.016265
      7          6           0       -2.192326    0.874166   -1.182281
      8          6           0        1.568926    0.919067    0.696034
      9          6           0        1.882426   -1.342839   -0.314190
     10          6           0        2.967173    1.244306    0.165042
     11          8           0       -1.500999    1.286909   -0.001971
     12          8           0       -0.293406   -0.680801    0.259001
     13          6           0       -2.416972   -0.563434    1.282023
     14          1           0       -4.159790    0.867746   -0.338380
     15          1           0       -3.982118   -0.146883   -1.768985
     16          1           0        0.801596    0.280644   -1.194635
     17          1           0       -4.137238   -1.505600    0.377482
     18          1           0       -2.630971   -1.773801   -0.487512
     19          1           0        4.757564    0.180587   -0.438026
     20          1           0        3.957604   -0.483038    0.998435
     21          1           0       -1.546292    0.215188   -1.769921
     22          1           0       -2.365206    1.783977   -1.752614
     23          1           0        1.645462    0.532035    1.716988
     24          1           0        0.952325    1.815910    0.719529
     25          1           0        2.889024    1.730867   -0.809530
     26          1           0        3.477675    1.934492    0.836635
     27          1           0       -3.033298    0.097617    1.893940
     28          1           0       -2.106433   -1.401512    1.904752
     29          1           0       -0.716091    0.696156    1.729146
     30          1           0        2.001074   -1.798566    0.676922
     31          1           0        1.463322   -2.084085   -0.991967
 ---------------------------------------------------------------------

 SCF Done:  E(RM062X) =  -617.503483381     A.U. after    1 cycles

 The electronic state is 1-A.
 Alpha  occ. eigenvalues --  -19.63345 -19.63187 -19.63004 -10.63454 -10.58804
 Alpha  occ. eigenvalues --  -10.58113 -10.58086 -10.57819 -10.53398 -10.53352
 Alpha  occ. eigenvalues --  -10.53083 -10.52977 -10.52869  -1.20172  -1.16752
 Alpha  occ. eigenvalues --   -1.13353  -0.91083  -0.89700  -0.87620  -0.84485
 Alpha  occ. eigenvalues --   -0.75348  -0.74043  -0.72552  -0.70790  -0.65963
 Alpha  occ. eigenvalues --   -0.63631  -0.60118  -0.58739  -0.57109  -0.56089
 Alpha  occ. eigenvalues --   -0.53998  -0.53374  -0.52008  -0.51029  -0.49744
 Alpha  occ. eigenvalues --   -0.48697  -0.47070  -0.46201  -0.45449  -0.45293
 Alpha  occ. eigenvalues --   -0.43775  -0.42691  -0.41067  -0.40422  -0.39249
 Alpha  occ. eigenvalues --   -0.38481  -0.37769  -0.36344  -0.34545  -0.33517
 Alpha  occ. eigenvalues --   -0.32523
 Alpha virt. eigenvalues --   -0.00077   0.00782   0.00827   0.01019   0.02167
 Alpha virt. eigenvalues --    0.02462   0.02665   0.03464   0.03569   0.04467
 Alpha virt. eigenvalues --    0.04645   0.04758   0.05685   0.05709   0.06861

 Mulliken charges:
               1
     1  C   -0.417574
     2  C   -0.003967
     3  C   -0.029008
     4  C   -0.283383
     5  O   -0.342210
     6  C   -0.203856
     7  C   -0.081380
     8  C   -0.197357
     9  C   -0.329470
    10  C   -0.426762
    11  O   -0.267463
    12  O   -0.307760
    13  C   -0.518421
    14  H    0.163439
    15  H    0.173213
    16  H    0.231599
    17  H    0.183679
    18  H    0.171936
    19  H    0.210426
    20  H    0.141634
    21  H    0.128715
    22  H    0.200880
    23  H    0.231036
    24  H    0.201795
    25  H    0.169724
    26  H    0.174023
    27  H    0.194347
    28  H    0.186627
    29  H    0.252359
    30  H    0.187737
    31  H    0.205444
 Sum of Mulliken charges =  -0.00000

 Dipole moment (field-independent basis, Debye):
    X=             -0.9423    Y=              0.7853    Z=              1.3268  Tot=              1.8069
 Quadrupole moment (field-independent basis, Debye-Ang):
   XX=            -75.2681   YY=            -83.9114   ZZ=            -78.0794
   XY=              6.4618   XZ=              6.5220   YZ=             -1.7709

  Exact polarizability: 174.715   3.436 154.972   0.757  -1.792 155.341
 Approx polarizability: 145.706   1.333 142.194  -0.049  -0.161 144.179

                      1                      2                      3
                      A                      A                      A
 Frequencies --     49.4124                65.3179               101.2063
 Red. masses --      3.7596                 3.7269                 3.5953
 Frc consts  --      0.0054                 0.0094                 0.0217
 IR Inten    --      0.6290                 1.8370                 2.1401

                      4                      5                      6
                      A                      A                      A
 Frequencies --    154.0959               194.2984               231.5963
 Red. masses --      3.1484                 3.1963                 2.8764
 Frc consts  --      0.0440                 0.0711                 0.0909
 IR Inten    --      0.3252                 3.8787                 9.8281

                      7                      8                      9
                      A                      A                      A
 Frequencies --    258.6252               271.3414               348.7328
 Red. masses --      2.0067                 3.0231                 2.6800
 Frc consts  --      0.0791                 0.1311                 0.1920
 IR Inten    --      3.5678                 1.0078                 7.4866

                     10                     11                     12
                      A                      A                      A
 Frequencies --    365.8679               381.1677               437.3261
 Red. masses --      2.2625                 2.2360                 3.3639
 Frc consts  --      0.1784                 0.1914                 0.3791
 IR Inten    --      6.6559                22.6406                 3.2853

                     13                     14                     15
                      A                      A                      A
 Frequencies --    450.7268               462.5743               486.4559
 Red. masses --      3.2488                 3.2521                 2.5327
 Frc consts  --      0.3889                 0.4100                 0.3531
 IR Inten    --      5.2456                 3.4422                 3.2008

                     16                     17                     18
                      A                      A                      A
 Frequencies --    538.5007               577.6477               637.6928
 Red. masses --      2.0649                 2.3390                 3.3537
 Frc consts  --      0.3528                 0.4598                 0.8035
 IR Inten    --      4.4047                12.4419                 4.8310

                     19                     20                     21
                      A                      A                      A
 Frequencies --    724.1830               825.2036               835.0875
 Red. masses --      3.1022                 2.0716                 1.5694
 Frc consts  --      0.9586                 0.8311                 0.6448
 IR Inten    --      5.4647                 2.3044                 3.0302

                     22                     23                     24
                      A                      A                      A
 Frequencies --    840.3736               885.3366               892.1249
 Red. masses --      3.5630                 1.3908                 2.3913
 Frc consts  --      1.4825                 0.6423                 1.1213
 IR Inten    --      8.4252                16.5255                 7.7483

                     25                     26                     27
                      A                      A                      A
 Frequencies --    897.2551               916.2483               929.3972
 Red. masses --      2.4895                 2.3548                 1.6750
 Frc consts  --      1.1809                 1.1648                 0.8524
 IR Inten    --     18.3779                18.3758                24.5627

                     28                     29                     30
                      A                      A                      A
 Frequencies --    946.2450               982.5898               999.9509
 Red. masses --      2.1925                 2.2616                 1.5488
 Frc consts  --      1.1566                 1.2865                 0.9124
 IR Inten    --     37.9509                42.3752                 6.4790

                     31                     32                     33
                      A                      A                      A
 Frequencies --   1025.9575              1044.6735              1062.0536
 Red. masses --      2.2294                 2.3649                 1.6883
 Frc consts  --      1.3826                 1.5207                 1.1220
 IR Inten    --     44.8711                82.2574                30.5810

                     34                     35                     36
                      A                      A                      A
 Frequencies --   1064.8821              1074.4431              1117.5918
 Red. masses --      1.6000                 2.1887                 4.2973
 Frc consts  --      1.0690                 1.4887                 3.1624
 IR Inten    --     49.6850                27.2361               221.1745

                     37                     38                     39
                      A                      A                      A
 Frequencies --   1145.3074              1156.8598              1175.0081
 Red. masses --      2.2611                 3.0255                 2.3123
 Frc consts  --      1.7475                 2.3857                 1.8809
 IR Inten    --     13.3365               143.1696                21.4017

                     40                     41                     42
                      A                      A                      A
 Frequencies --   1183.8777              1188.6942              1211.7738
 Red. masses --      3.4444                 2.4796                 1.5250
 Frc consts  --      2.8443                 2.0643                 1.3193
 IR Inten    --    191.3307                43.8301                67.0113

                     43                     44                     45
                      A                      A                      A
 Frequencies --   1215.5899              1234.8154              1251.1336
 Red. masses --      1.4922                 1.6200                 1.4587
 Frc consts  --      1.2991                 1.4554                 1.3453
 IR Inten    --     44.0073                50.6191                11.6878

                     46                     47                     48
                      A                      A                      A
 Frequencies --   1290.4356              1301.5133              1321.7826
 Red. masses --      1.2187                 1.1673                 1.1508
 Frc consts  --      1.1957                 1.1650                 1.1846
 IR Inten    --     19.3328                15.0485                 8.2808

                     49                     50                     51
                      A                      A                      A
 Frequencies --   1330.8267              1347.8068              1352.7056
 Red. masses --      1.2749                 1.2170                 1.2793
 Frc consts  --      1.3304                 1.3026                 1.3792
 IR Inten    --      7.2915                 0.8573                11.6819

                     52                     53                     54
                      A                      A                      A
 Frequencies --   1363.8741              1383.7973              1386.7888
 Red. masses --      1.3554                 1.4174                 1.4661
 Frc consts  --      1.4855                 1.5991                 1.6612
 IR Inten    --      4.6691                 6.2128                 0.5761

                     55                     56                     57
                      A                      A                      A
 Frequencies --   1391.8190              1400.2543              1408.2189
 Red. masses --      1.6387                 1.2553                 1.4632
 Frc consts  --      1.8703                 1.4501                 1.7096
 IR Inten    --      4.5173                14.8109                13.6043

                     58                     59                     60
                      A                      A                      A
 Frequencies --   1417.1859              1419.4452              1433.5179
 Red. masses --      1.4451                 1.3577                 1.4786
 Frc consts  --      1.7101                 1.6118                 1.7902
 IR Inten    --      8.3828                 9.8203                 7.3257

                     61                     62                     63
                      A                      A                      A
 Frequencies --   1436.7969              1476.5601              1481.9901
 Red. masses --      1.3768                 1.1033                 1.0928
 Frc consts  --      1.6746                 1.4173                 1.4141
 IR Inten    --     20.6451                 4.9223                 9.5697

                     64                     65                     66
                      A                      A                      A
 Frequencies --   1483.5017              1495.9058              1498.4258
 Red. masses --      1.0868                 1.1078                 1.0993
 Frc consts  --      1.4092                 1.4606                 1.4542
 IR Inten    --      7.6298                15.3923                 5.1901

                     67                     68                     69
                      A                      A                      A
 Frequencies --   1501.8341              1509.2805              1515.2004
 Red. masses --      1.0952                 1.0940                 1.1013
 Frc consts  --      1.4555                 1.4683                 1.4897
 IR Inten    --      2.8301                 3.3671                 7.5165

                     70                     71                     72
                      A                      A                      A
 Frequencies --   3015.9840              3021.5521              3028.0874
 Red. masses --      1.0720                 1.0706                 1.0788
 Frc consts  --      5.7451                 5.7588                 5.8279
 IR Inten    --     14.3759                77.6405                89.7460

                     73                     74                     75
                      A                      A                      A
 Frequencies --   3051.8814              3053.2144              3063.3004
 Red. masses --      1.0690                 1.0685                 1.0629
 Frc consts  --      5.8665                 5.8688                 5.8763
 IR Inten    --     43.7395                46.8611                40.7487

                     76                     77                     78
                      A                      A                      A
 Frequencies --   3071.7095              3072.8269              3078.4023
 Red. masses --      1.0620                 1.0629                 1.0627
 Frc consts  --      5.9039                 5.9131                 5.9332
 IR Inten    --     47.9855                25.9286                18.2579

                     79                     80                     81
                      A                      A                      A
 Frequencies --   3106.5945              3113.6515              3119.6449
 Red. masses --      1.0860                 1.0980                 1.1022
 Frc consts  --      6.1751                 6.2718                 6.3201
 IR Inten    --     75.5847                28.3829                61.3551

                     82                     83                     84
                      A                      A                      A
 Frequencies --   3120.3624              3130.4356              3131.1169
 Red. masses --      1.1008                 1.1029                 1.0967
 Frc consts  --      6.3148                 6.3682                 6.3346
 IR Inten    --     51.3197                25.9531                44.1737

                     85                     86                     87
                      A                      A                      A
 Frequencies --   3132.1394              3135.5256              3136.3398
 Red. masses --      1.0949                 1.0956                 1.0979
 Frc consts  --      6.3284                 6.3462                 6.3630
 IR Inten    --     41.1291                36.6511                46.1722

 - Thermochemistry -
 -------------------
 Temperature   298.150 Kelvin.  Pressure   1.00000 Atm.
 Atom     1 has atomic number  6 and mass  12.00000

 Molecular mass:   186.12559 amu.
 Principal axes and moments of inertia in atomic units:
                           1         2         3
     Eigenvalues --   925.824414369.585984559.35191
           X            0.99988   0.01299   0.00824
           Y           -0.01267   0.99921  -0.03771
           Z           -0.00873   0.03760   0.99925
 This molecule is an asymmetric top.
 Rotational symmetry number  1.
 Warning -- assumption of classical behavior for rotation
           may cause significant error
 Rotational temperatures (Kelvin)      0.09355     0.01982     0.01900
 Rotational constants (GHZ):           1.94933     0.41302     0.39583
 Zero-point vibrational energy     737925.3 (Joules/Mol)
                                  176.36838 (Kcal/Mol)
 Warning -- explicit consideration of  17 degrees of freedom as
           vibrations may cause significant error
 Vibrational temperatures:     71.09    93.98   145.61   221.71   279.55
          (Kelvin)            333.22   372.10   390.40   501.75   526.40
                              548.42   629.21   648.50   665.54   699.90
                              774.78   831.11   917.50  1041.94  1187.28
                             1201.50  1209.11  1273.80  1283.57  1290.95
                             1318.28  1337.20  1361.44  1413.73  1438.71
                             1476.12  1503.05  1528.06  1532.13  1545.88
                             1607.97  1647.84  1664.46  1690.57  1703.34
                             1710.27  1743.47  1748.96  1776.62  1800.10
                             1856.65  1872.59  1901.75  1914.76  1939.19
                             1946.24  1962.31  1990.98  1995.28  2002.52
                             2014.65  2026.11  2039.01  2042.27  2062.51
                             2067.23  2124.44  2132.25  2134.43  2152.27
                             2155.90  2160.80  2171.52  2180.04  4339.33
                             4347.34  4356.74  4390.98  4392.89  4407.41
                             4419.50  4421.11  4429.13  4469.70  4479.85
                             4488.47  4489.51  4504.00  4504.98  4506.45
                             4511.32  4512.49

 Zero-point correction=                           0.281061 (Hartree/Particle)
 Thermal correction to Energy=                    0.292687
 Thermal correction to Enthalpy=                  0.293631
 Thermal correction to Gibbs Free Energy=         0.243151
 Sum of electronic and zero-point Energies=           -617.222422
 Sum of electronic and thermal Energies=              -617.210796
 Sum of electronic and thermal Enthalpies=            -617.209852
 Sum of electronic and thermal Free Energies=         -617.260333

                     E (Thermal)             CV                S
                      KCal/Mol        Cal/Mol-Kelvin    Cal/Mol-Kelvin
 Total                  183.664             46.555            106.245
 Electronic               0.000              0.000              0.000
 Translational            0.889              2.981             41.570
 Rotational               0.889              2.981             31.290
 Vibrational            181.887             40.593             33.386
 Vibration     1          0.595              1.978              4.841
 Vibration     2          0.597              1.971              4.290
 Vibration     3          0.604              1.948              3.431
 Vibration     4          0.620              1.898              2.621
 Vibration     5          0.635              1.848              2.186
 Vibration     6          0.653              1.793              1.867
 Vibration     7          0.667              1.748              1.671
 Vibration     8          0.675              1.726              1.588
 Vibration     9          0.726              1.578              1.172
 Vibration    10          0.739              1.542              1.097
 Vibration    11          0.751              1.510              1.035
 Vibration    12          0.798              1.389              0.835
 Vibration    13          0.810              1.359              0.794
 Vibration    14          0.820              1.333              0.759
 Vibration    15          0.842              1.280              0.693
 Vibration    16          0.894              1.165              0.569
 Vibration    17          0.934              1.080              0.490

 Optimization completed.
    -- Stationary point found.
 Normal termination of Gaussian 16 at Sun Nov  4 23:02:16 2018.
