 Gaussian 16, Revision A.03,
 Gaussian 16:  ES64L-G16RevA.03 25-Dec-2016

 ----------------------------------------------------------------------
 #M062X/6-311++G(2d,2p) opt=ModRedundant freq=noraman SCRF=(Solvent=Wat
 er)
 ----------------------------------------------------------------------

 ----------------------------
 D_1a_4a_L_PHI.inp_extract_13
 ----------------------------
 Symbolic Z-matrix:
 Charge =  0 Multiplicity = 1

 SCF Done:  E(RM062X) =  -617.497562153     A.U. after   12 cycles
 SCF Done:  E(RM062X) =  -617.499603157     A.U. after   11 cycles
 SCF Done:  E(RM062X) =  -617.500150331     A.U. after   11 cycles
 SCF Done:  E(RM062X) =  -617.500316611     A.U. after   10 cycles
 SCF Done:  E(RM062X) =  -617.500335195     A.U. after    9 cycles
 SCF Done:  E(RM062X) =  -617.500344993     A.U. after    9 cycles
 SCF Done:  E(RM062X) =  -617.500344722     A.U. after    7 cycles
 Optimization completed.
    -- Stationary point found.
 Normal termination of Gaussian 16 at Mon Nov  5 02:21:28 2018.

 ----------------------------------------------------------------------
 #N Geom=AllCheck Guess=TCheck SCRF=Check GenChk RM062X/6-311++G(2d,2p)
  Freq
 ----------------------------------------------------------------------

 Structure from the checkpoint file:  "D_1a_4a_L_PHI.inp_extract_13.chk"
 ----------------------------
 D_1a_4a_L_PHI.inp_extract_13
 ----------------------------
 Charge =  0 Multiplicity = 1

                         Standard orientation:
 ---------------------------------------------------------------------
 Center     Atomic      Atomic             Coordinates (Angstroms)
 Number     Number       Type             X           Y           Z
 ---------------------------------------------------------------------
      1          6           0       -3.136294    0.625676    0.836475
      2          6           0       -1.100910   -0.426386   -0.915536
      3          6           0        2.140882   -1.400163    0.544603
      4          6           0       -1.923584    1.485784    0.488347
      5          6           0        2.916562    0.974638    0.588139
      6          8           0        1.994566    1.297604   -0.446583
      7          6           0       -2.764929   -0.842823    0.728550
      8          6           0        1.214313   -1.009328   -0.599372
      9          6           0        2.419092   -0.187538    1.433620
     10          6           0        1.789321    0.205812   -1.320197
     11          8           0       -2.249259   -1.158369   -0.566492
     12          8           0       -0.062875   -0.770616   -0.021651
     13          6           0       -1.381483    1.073038   -0.878619
     14          1           0       -3.952632    0.839980    0.142449
     15          1           0       -3.494719    0.833447    1.845185
     16          1           0        3.076663   -1.767663    0.117734
     17          1           0       -2.184556    2.543539    0.485483
     18          1           0       -1.144799    1.343951    1.241611
     19          1           0       -2.021435   -1.102990    1.486194
     20          1           0       -3.631055   -1.487258    0.860823
     21          1           0        1.505016    0.111619    1.948019
     22          1           0        3.164781   -0.429044    2.191313
     23          1           0        2.738938   -0.093712   -1.780840
     24          1           0        1.129800    0.551735   -2.113991
     25          1           0       -2.118878    1.292675   -1.653950
     26          1           0       -0.470028    1.619548   -1.112559
     27          1           0       -0.843692   -0.758823   -1.924086
     28          1           0        3.885510    0.725084    0.137624
     29          1           0        3.036250    1.877719    1.182741
     30          1           0        1.693530   -2.214437    1.113415
     31          1           0        1.134017   -1.826583   -1.325404
 ---------------------------------------------------------------------

 SCF Done:  E(RM062X) =  -617.500344722     A.U. after    1 cycles

 The electronic state is 1-A.
 Alpha  occ. eigenvalues --  -19.63048 -19.62936 -19.62807 -10.63553 -10.59091
 Alpha  occ. eigenvalues --  -10.58226 -10.57990 -10.57699 -10.53317 -10.52950
 Alpha  occ. eigenvalues --  -10.52879 -10.52777 -10.52731  -1.19895  -1.16619
 Alpha  occ. eigenvalues --   -1.13263  -0.90706  -0.89757  -0.86763  -0.85010
 Alpha  occ. eigenvalues --   -0.74761  -0.73556  -0.73002  -0.71520  -0.66462
 Alpha  occ. eigenvalues --   -0.62538  -0.59931  -0.57772  -0.57639  -0.55782
 Alpha  occ. eigenvalues --   -0.54792  -0.53834  -0.51531  -0.50417  -0.49614
 Alpha  occ. eigenvalues --   -0.48048  -0.47581  -0.46167  -0.45424  -0.45019
 Alpha  occ. eigenvalues --   -0.43715  -0.42589  -0.41356  -0.40296  -0.38753
 Alpha  occ. eigenvalues --   -0.38061  -0.38015  -0.37206  -0.34206  -0.33090
 Alpha  occ. eigenvalues --   -0.31799
 Alpha virt. eigenvalues --   -0.00143   0.00799   0.00853   0.01152   0.02296
 Alpha virt. eigenvalues --    0.02600   0.02748   0.03181   0.03254   0.04810
 Alpha virt. eigenvalues --    0.04939   0.05072   0.05420   0.05779   0.06932

 Mulliken charges:
               1
     1  C   -0.383517
     2  C   -0.240632
     3  C   -0.516164
     4  C   -0.270292
     5  C   -0.208540
     6  O   -0.269601
     7  C   -0.215481
     8  C    0.211774
     9  C   -0.290283
    10  C   -0.506272
    11  O   -0.297002
    12  O   -0.301815
    13  C   -0.161229
    14  H    0.167426
    15  H    0.164620
    16  H    0.208332
    17  H    0.179917
    18  H    0.161082
    19  H    0.165897
    20  H    0.214363
    21  H    0.164763
    22  H    0.181601
    23  H    0.183926
    24  H    0.203809
    25  H    0.207949
    26  H    0.193041
    27  H    0.269892
    28  H    0.160390
    29  H    0.196857
    30  H    0.177194
    31  H    0.247995
 Sum of Mulliken charges =  -0.00000

 Dipole moment (field-independent basis, Debye):
    X=              1.9826    Y=             -0.0036    Z=              0.2459  Tot=              1.9978
 Quadrupole moment (field-independent basis, Debye-Ang):
   XX=            -73.3960   YY=            -84.8317   ZZ=            -75.9102
   XY=             -7.2127   XZ=             -2.2481   YZ=              0.6569

  Exact polarizability: 169.776  -0.308 155.377  -1.477   1.439 158.765
 Approx polarizability: 146.991  -0.621 139.717  -0.268   1.472 145.173

                      1                      2                      3
                      A                      A                      A
 Frequencies --     45.0816                56.0580               101.0865
 Red. masses --      4.0589                 3.4948                 3.4312
 Frc consts  --      0.0049                 0.0065                 0.0207
 IR Inten    --      2.6953                 1.7167                 3.0997

                      4                      5                      6
                      A                      A                      A
 Frequencies --    147.3559               175.3995               229.7003
 Red. masses --      3.6328                 3.6474                 2.7601
 Frc consts  --      0.0465                 0.0661                 0.0858
 IR Inten    --      1.2782                 6.0274                 5.0865

                      7                      8                      9
                      A                      A                      A
 Frequencies --    272.9428               289.0555               330.4564
 Red. masses --      2.8330                 2.3892                 2.4537
 Frc consts  --      0.1244                 0.1176                 0.1579
 IR Inten    --      1.8248                 2.6719                 3.7188

                     10                     11                     12
                      A                      A                      A
 Frequencies --    367.7682               414.8455               437.7336
 Red. masses --      1.8815                 2.6408                 3.4697
 Frc consts  --      0.1499                 0.2678                 0.3917
 IR Inten    --      0.3086                10.8028                10.1473

                     13                     14                     15
                      A                      A                      A
 Frequencies --    445.3263               506.4473               524.0213
 Red. masses --      2.2013                 3.0270                 2.5265
 Frc consts  --      0.2572                 0.4574                 0.4088
 IR Inten    --      2.8147                 5.5409                 2.7391

                     16                     17                     18
                      A                      A                      A
 Frequencies --    535.5602               549.5452               672.7132
 Red. masses --      3.0461                 2.3208                 2.5111
 Frc consts  --      0.5148                 0.4129                 0.6695
 IR Inten    --      4.1584                 5.7583                15.7093

                     19                     20                     21
                      A                      A                      A
 Frequencies --    743.2205               834.8190               838.3012
 Red. masses --      2.5518                 1.6258                 3.4583
 Frc consts  --      0.8305                 0.6676                 1.4319
 IR Inten    --      7.9370                 1.2300                 9.8142

                     22                     23                     24
                      A                      A                      A
 Frequencies --    850.3686               871.7234               880.0419
 Red. masses --      3.2734                 1.9084                 1.8189
 Frc consts  --      1.3947                 0.8544                 0.8300
 IR Inten    --      3.6266                16.4830                19.1408

                     25                     26                     27
                      A                      A                      A
 Frequencies --    898.7569               906.0705               906.2848
 Red. masses --      2.5117                 2.2827                 2.6132
 Frc consts  --      1.1954                 1.1042                 1.2646
 IR Inten    --     17.0537                52.7373                24.3151

                     28                     29                     30
                      A                      A                      A
 Frequencies --    934.7288               948.5615              1001.4590
 Red. masses --      1.7540                 1.6963                 1.8150
 Frc consts  --      0.9029                 0.8992                 1.0725
 IR Inten    --      9.8501                 7.8238                42.3821

                     31                     32                     33
                      A                      A                      A
 Frequencies --   1031.1068              1041.5551              1057.0638
 Red. masses --      1.9869                 2.3849                 1.9034
 Frc consts  --      1.2446                 1.5244                 1.2531
 IR Inten    --     24.4832                44.0461                 5.0904

                     34                     35                     36
                      A                      A                      A
 Frequencies --   1071.1133              1075.4044              1081.1008
 Red. masses --      1.5720                 2.2865                 2.1643
 Frc consts  --      1.0626                 1.5580                 1.4904
 IR Inten    --     23.9158                37.1634               266.3454

                     37                     38                     39
                      A                      A                      A
 Frequencies --   1100.1671              1146.7803              1154.4378
 Red. masses --      1.7239                 2.4679                 2.7091
 Frc consts  --      1.2293                 1.9122                 2.1272
 IR Inten    --    127.7649               150.4855                29.0707

                     40                     41                     42
                      A                      A                      A
 Frequencies --   1170.4910              1184.9625              1212.7511
 Red. masses --      3.2773                 2.4878                 1.4218
 Frc consts  --      2.6455                 2.0581                 1.2321
 IR Inten    --    141.5297                29.5193                15.0122

                     43                     44                     45
                      A                      A                      A
 Frequencies --   1231.7774              1241.1693              1249.1119
 Red. masses --      1.4001                 1.7909                 1.7874
 Frc consts  --      1.2516                 1.6255                 1.6431
 IR Inten    --     19.2675               128.0280                45.3525

                     46                     47                     48
                      A                      A                      A
 Frequencies --   1287.9973              1301.1230              1319.5329
 Red. masses --      1.1990                 1.1277                 1.1463
 Frc consts  --      1.1719                 1.1248                 1.1759
 IR Inten    --     24.9235                 7.5547                 4.0717

                     49                     50                     51
                      A                      A                      A
 Frequencies --   1337.0498              1353.5957              1364.3107
 Red. masses --      1.2228                 1.3328                 1.3304
 Frc consts  --      1.2880                 1.4387                 1.4590
 IR Inten    --     12.0651                25.0588                 2.9428

                     52                     53                     54
                      A                      A                      A
 Frequencies --   1372.0872              1381.8343              1383.8576
 Red. masses --      1.6555                 1.5024                 1.3794
 Frc consts  --      1.8363                 1.6902                 1.5564
 IR Inten    --     11.7363                14.1858                29.3993

                     55                     56                     57
                      A                      A                      A
 Frequencies --   1392.1169              1392.8565              1399.4541
 Red. masses --      1.6164                 1.4960                 1.3773
 Frc consts  --      1.8456                 1.7100                 1.5893
 IR Inten    --      9.8811                22.6136                 1.1309

                     58                     59                     60
                      A                      A                      A
 Frequencies --   1406.4579              1416.8885              1430.0257
 Red. masses --      1.3803                 1.3687                 1.3628
 Frc consts  --      1.6087                 1.6190                 1.6420
 IR Inten    --     10.3981                18.6728                 8.0396

                     61                     62                     63
                      A                      A                      A
 Frequencies --   1443.1448              1474.2816              1475.9225
 Red. masses --      1.2997                 1.0879                 1.1080
 Frc consts  --      1.5948                 1.3932                 1.4220
 IR Inten    --      9.5610                 6.9259                 3.9094

                     64                     65                     66
                      A                      A                      A
 Frequencies --   1482.0260              1485.8292              1495.3735
 Red. masses --      1.0872                 1.1163                 1.1030
 Frc consts  --      1.4069                 1.4521                 1.4533
 IR Inten    --     11.5835                13.7006                12.5761

                     67                     68                     69
                      A                      A                      A
 Frequencies --   1503.1569              1512.9675              1514.6478
 Red. masses --      1.0814                 1.0942                 1.1021
 Frc consts  --      1.4397                 1.4757                 1.4897
 IR Inten    --      4.4110                 6.5065                13.5151

                     70                     71                     72
                      A                      A                      A
 Frequencies --   3016.2311              3022.1012              3031.8783
 Red. masses --      1.0707                 1.0736                 1.0810
 Frc consts  --      5.7393                 5.7772                 5.8549
 IR Inten    --     78.8539                18.0291               112.2418

                     73                     74                     75
                      A                      A                      A
 Frequencies --   3058.3714              3062.6754              3065.8473
 Red. masses --      1.0691                 1.0659                 1.0633
 Frc consts  --      5.8919                 5.8906                 5.8887
 IR Inten    --     34.0146                34.4480                39.9645

                     76                     77                     78
                      A                      A                      A
 Frequencies --   3068.9254              3073.8690              3078.2508
 Red. masses --      1.0745                 1.0645                 1.0738
 Frc consts  --      5.9627                 5.9263                 5.9949
 IR Inten    --     28.1356                43.1525                59.5099

                     79                     80                     81
                      A                      A                      A
 Frequencies --   3078.6650              3112.9880              3117.3522
 Red. masses --      1.0614                 1.0972                 1.1022
 Frc consts  --      5.9272                 6.2648                 6.3110
 IR Inten    --     53.3981                39.5871                63.1562

                     82                     83                     84
                      A                      A                      A
 Frequencies --   3120.1485              3126.5824              3130.7043
 Red. masses --      1.1003                 1.1029                 1.0934
 Frc consts  --      6.3114                 6.3520                 6.3143
 IR Inten    --     39.7596                57.2588                50.8311

                     85                     86                     87
                      A                      A                      A
 Frequencies --   3133.7740              3136.0437              3146.2683
 Red. masses --      1.0958                 1.1000                 1.0960
 Frc consts  --      6.3402                 6.3740                 6.3920
 IR Inten    --     40.4524                47.6242                14.2370

 - Thermochemistry -
 -------------------
 Temperature   298.150 Kelvin.  Pressure   1.00000 Atm.
 Atom     1 has atomic number  6 and mass  12.00000

 Molecular mass:   186.12559 amu.
 Principal axes and moments of inertia in atomic units:
                           1         2         3
     Eigenvalues --  1197.051943485.324443685.31295
           X            0.99982  -0.01873  -0.00340
           Y            0.01871   0.99980  -0.00741
           Z            0.00354   0.00735   0.99997
 This molecule is an asymmetric top.
 Rotational symmetry number  1.
 Warning -- assumption of classical behavior for rotation
           may cause significant error
 Rotational temperatures (Kelvin)      0.07236     0.02485     0.02350
 Rotational constants (GHZ):           1.50765     0.51781     0.48971
 Zero-point vibrational energy     737328.1 (Joules/Mol)
                                  176.22566 (Kcal/Mol)
 Warning -- explicit consideration of  17 degrees of freedom as
           vibrations may cause significant error
 Vibrational temperatures:     64.86    80.66   145.44   212.01   252.36
          (Kelvin)            330.49   392.70   415.89   475.45   529.14
                              596.87   629.80   640.73   728.66   753.95
                              770.55   790.67   967.88  1069.33  1201.12
                             1206.13  1223.49  1254.22  1266.18  1293.11
                             1303.63  1303.94  1344.87  1364.77  1440.88
                             1483.53  1498.57  1520.88  1541.09  1547.27
                             1555.46  1582.90  1649.96  1660.98  1684.08
                             1704.90  1744.88  1772.25  1785.77  1797.19
                             1853.14  1872.03  1898.51  1923.72  1947.52
                             1962.94  1974.13  1988.15  1991.06  2002.95
                             2004.01  2013.50  2023.58  2038.59  2057.49
                             2076.36  2121.16  2123.52  2132.30  2137.78
                             2151.51  2162.71  2176.82  2179.24  4339.68
                             4348.13  4362.20  4400.31  4406.51  4411.07
                             4415.50  4422.61  4428.92  4429.51  4478.90
                             4485.17  4489.20  4498.45  4504.39  4508.80
                             4512.07  4526.78

 Zero-point correction=                           0.280833 (Hartree/Particle)
 Thermal correction to Energy=                    0.292439
 Thermal correction to Enthalpy=                  0.293383
 Thermal correction to Gibbs Free Energy=         0.242804
 Sum of electronic and zero-point Energies=           -617.219511
 Sum of electronic and thermal Energies=              -617.207906
 Sum of electronic and thermal Enthalpies=            -617.206962
 Sum of electronic and thermal Free Energies=         -617.257541

                     E (Thermal)             CV                S
                      KCal/Mol        Cal/Mol-Kelvin    Cal/Mol-Kelvin
 Total                  183.508             46.479            106.452
 Electronic               0.000              0.000              0.000
 Translational            0.889              2.981             41.570
 Rotational               0.889              2.981             31.109
 Vibrational            181.731             40.517             33.773
 Vibration     1          0.595              1.979              5.022
 Vibration     2          0.596              1.975              4.591
 Vibration     3          0.604              1.948              3.433
 Vibration     4          0.617              1.906              2.706
 Vibration     5          0.627              1.873              2.377
 Vibration     6          0.652              1.796              1.881
 Vibration     7          0.676              1.723              1.578
 Vibration     8          0.686              1.694              1.479
 Vibration     9          0.713              1.615              1.258
 Vibration    10          0.740              1.539              1.089
 Vibration    11          0.778              1.438              0.910
 Vibration    12          0.798              1.388              0.834
 Vibration    13          0.805              1.371              0.810
 Vibration    14          0.862              1.236              0.642
 Vibration    15          0.879              1.197              0.601
 Vibration    16          0.891              1.171              0.575
 Vibration    17          0.905              1.141              0.545

 Optimization completed.
    -- Stationary point found.
 Normal termination of Gaussian 16 at Mon Nov  5 03:15:27 2018.
