 Gaussian 16, Revision A.03,
 Gaussian 16:  ES64L-G16RevA.03 25-Dec-2016

 ----------------------------------------------------------------------
 #M062X/6-311++G(2d,2p) opt=ModRedundant freq=noraman SCRF=(Solvent=Wat
 er)
 ----------------------------------------------------------------------

 ----------------------------
 D_1a_4a_L_PHI.inp_extract_15
 ----------------------------
 Symbolic Z-matrix:
 Charge =  0 Multiplicity = 1

 SCF Done:  E(RM062X) =  -617.497484517     A.U. after   12 cycles
 SCF Done:  E(RM062X) =  -617.498991442     A.U. after   10 cycles
 SCF Done:  E(RM062X) =  -617.499130256     A.U. after    9 cycles
 SCF Done:  E(RM062X) =  -617.499151317     A.U. after    9 cycles
 SCF Done:  E(RM062X) =  -617.499154444     A.U. after    8 cycles
 SCF Done:  E(RM062X) =  -617.499154890     A.U. after    8 cycles
 SCF Done:  E(RM062X) =  -617.499155839     A.U. after    9 cycles
 SCF Done:  E(RM062X) =  -617.499156968     A.U. after    9 cycles
 SCF Done:  E(RM062X) =  -617.499158224     A.U. after    9 cycles
 SCF Done:  E(RM062X) =  -617.499159056     A.U. after    8 cycles
 SCF Done:  E(RM062X) =  -617.499158831     A.U. after    8 cycles
 Optimization completed.
    -- Stationary point found.
 Normal termination of Gaussian 16 at Mon Nov  5 02:53:28 2018.

 ----------------------------------------------------------------------
 #N Geom=AllCheck Guess=TCheck SCRF=Check GenChk RM062X/6-311++G(2d,2p)
  Freq
 ----------------------------------------------------------------------

 Structure from the checkpoint file:  "D_1a_4a_L_PHI.inp_extract_15.chk"
 ----------------------------
 D_1a_4a_L_PHI.inp_extract_15
 ----------------------------
 Charge =  0 Multiplicity = 1

                         Standard orientation:
 ---------------------------------------------------------------------
 Center     Atomic      Atomic             Coordinates (Angstroms)
 Number     Number       Type             X           Y           Z
 ---------------------------------------------------------------------
      1          6           0        3.398395    0.404634   -0.692549
      2          6           0        1.099651   -0.759600    0.598943
      3          6           0       -2.009705   -0.760593    1.143505
      4          6           0        2.660773    1.197481    0.384419
      5          6           0       -3.407536    0.042143   -0.761128
      6          8           0       -2.417083    1.007092   -1.091576
      7          6           0        2.443346   -0.575409   -1.351470
      8          6           0       -1.021514    0.354929    0.799950
      9          6           0       -2.787328   -1.180164   -0.103050
     10          6           0       -1.735748    1.472915    0.057999
     11          8           0        1.825940   -1.436069   -0.389736
     12          8           0        0.015814   -0.120050   -0.049922
     13          6           0        1.989732    0.226015    1.351937
     14          1           0        4.224409   -0.149396   -0.240148
     15          1           0        3.817938    1.063373   -1.453485
     16          1           0       -2.701085   -0.381199    1.900181
     17          1           0        3.344871    1.853234    0.921749
     18          1           0        1.901288    1.829484   -0.081719
     19          1           0        1.669872   -0.038495   -1.905218
     20          1           0        2.962394   -1.239126   -2.039165
     21          1           0       -2.115676   -1.663009   -0.814212
     22          1           0       -3.570554   -1.893879    0.152904
     23          1           0       -2.445196    1.953476    0.742539
     24          1           0       -1.013732    2.213173   -0.281605
     25          1           0        2.746329   -0.361707    1.876074
     26          1           0        1.414727    0.753204    2.111477
     27          1           0        0.725578   -1.535577    1.270844
     28          1           0       -4.144356    0.499223   -0.088100
     29          1           0       -3.906316   -0.215564   -1.693036
     30          1           0       -1.487043   -1.608834    1.585228
     31          1           0       -0.601222    0.779723    1.714227
 ---------------------------------------------------------------------

 SCF Done:  E(RM062X) =  -617.499158831     A.U. after    1 cycles

 The electronic state is 1-A.
 Alpha  occ. eigenvalues --  -19.63124 -19.62875 -19.62797 -10.63661 -10.58963
 Alpha  occ. eigenvalues --  -10.58147 -10.57906 -10.57761 -10.53284 -10.53040
 Alpha  occ. eigenvalues --  -10.53001 -10.52909 -10.52866  -1.20024  -1.16515
 Alpha  occ. eigenvalues --   -1.13257  -0.90406  -0.89856  -0.87225  -0.84816
 Alpha  occ. eigenvalues --   -0.74690  -0.73564  -0.73120  -0.71657  -0.66583
 Alpha  occ. eigenvalues --   -0.61865  -0.59755  -0.59054  -0.57234  -0.55848
 Alpha  occ. eigenvalues --   -0.54192  -0.52777  -0.52700  -0.51509  -0.49590
 Alpha  occ. eigenvalues --   -0.47501  -0.46999  -0.46069  -0.45878  -0.45337
 Alpha  occ. eigenvalues --   -0.43925  -0.42812  -0.41471  -0.39935  -0.39239
 Alpha  occ. eigenvalues --   -0.38345  -0.37911  -0.36576  -0.34842  -0.32942
 Alpha  occ. eigenvalues --   -0.31558
 Alpha virt. eigenvalues --   -0.00160   0.00823   0.00912   0.01017   0.02271
 Alpha virt. eigenvalues --    0.02465   0.02684   0.03356   0.03507   0.04611
 Alpha virt. eigenvalues --    0.04726   0.04849   0.05414   0.05587   0.07234

 Mulliken charges:
               1
     1  C   -0.375964
     2  C   -0.201473
     3  C   -0.385935
     4  C   -0.312957
     5  C   -0.221291
     6  O   -0.302453
     7  C   -0.239573
     8  C    0.038501
     9  C   -0.281492
    10  C   -0.376928
    11  O   -0.285128
    12  O   -0.302961
    13  C   -0.119838
    14  H    0.165113
    15  H    0.168260
    16  H    0.218674
    17  H    0.183804
    18  H    0.147736
    19  H    0.175124
    20  H    0.209176
    21  H    0.167879
    22  H    0.180787
    23  H    0.189141
    24  H    0.207210
    25  H    0.199663
    26  H    0.168753
    27  H    0.290384
    28  H    0.138420
    29  H    0.202265
    30  H    0.137920
    31  H    0.217185
 Sum of Mulliken charges =  -0.00000

 Dipole moment (field-independent basis, Debye):
    X=             -0.2042    Y=              1.1521    Z=              3.5181  Tot=              3.7076
 Quadrupole moment (field-independent basis, Debye-Ang):
   XX=            -71.7924   YY=            -82.8675   ZZ=            -78.8232
   XY=              6.2021   XZ=             -4.8924   YZ=              1.6724

  Exact polarizability: 171.200   2.288 155.244  -1.927   1.305 156.676
 Approx polarizability: 145.858  -0.210 141.244  -1.910   0.363 144.095

 ******    1 imaginary frequencies (negative Signs) ******

                      1                      2                      3
                      A                      A                      A
 Frequencies --    -27.2790                53.7052                78.6081
 Red. masses --      3.4818                 3.9156                 3.7872
 Frc consts  --      0.0015                 0.0067                 0.0138
 IR Inten    --      1.6839                 2.3245                 1.0116

                      4                      5                      6
                      A                      A                      A
 Frequencies --    152.8480               169.2898               235.2466
 Red. masses --      3.4908                 3.0388                 2.8479
 Frc consts  --      0.0481                 0.0513                 0.0929
 IR Inten    --      1.1279                 3.7045                 4.9873

                      7                      8                      9
                      A                      A                      A
 Frequencies --    256.8273               285.7739               336.3140
 Red. masses --      2.6860                 2.5456                 1.9899
 Frc consts  --      0.1044                 0.1225                 0.1326
 IR Inten    --      1.5028                 1.6762                 2.1127

                     10                     11                     12
                      A                      A                      A
 Frequencies --    405.5989               407.6537               419.7756
 Red. masses --      2.6584                 2.5186                 2.2380
 Frc consts  --      0.2577                 0.2466                 0.2324
 IR Inten    --      3.4455                22.1401                 3.9800

                     13                     14                     15
                      A                      A                      A
 Frequencies --    445.0652               509.4527               518.0624
 Red. masses --      2.6704                 4.1686                 2.9307
 Frc consts  --      0.3116                 0.6374                 0.4634
 IR Inten    --      3.5720                14.4467                 3.2012

                     16                     17                     18
                      A                      A                      A
 Frequencies --    523.9304               543.2139               665.0919
 Red. masses --      2.4877                 2.2686                 2.3928
 Frc consts  --      0.4023                 0.3944                 0.6236
 IR Inten    --      3.1192                 6.4243                 7.4639

                     19                     20                     21
                      A                      A                      A
 Frequencies --    747.1899               830.7873               841.9481
 Red. masses --      2.4780                 1.7242                 2.7840
 Frc consts  --      0.8151                 0.7012                 1.1628
 IR Inten    --      1.0467                 1.2670                 3.1809

                     22                     23                     24
                      A                      A                      A
 Frequencies --    849.9372               872.4610               881.9294
 Red. masses --      3.5170                 1.7330                 2.1285
 Frc consts  --      1.4969                 0.7772                 0.9754
 IR Inten    --      1.7108                 7.5694                 9.0767

                     25                     26                     27
                      A                      A                      A
 Frequencies --    897.1124               903.3407               910.0147
 Red. masses --      2.5073                 2.3031                 2.5000
 Frc consts  --      1.1889                 1.1073                 1.2198
 IR Inten    --     26.4395                37.9215                31.8063

                     28                     29                     30
                      A                      A                      A
 Frequencies --    928.4789               948.9931              1009.4624
 Red. masses --      1.7814                 1.6073                 1.9746
 Frc consts  --      0.9048                 0.8528                 1.1855
 IR Inten    --     23.8643                 1.6167                52.6264

                     31                     32                     33
                      A                      A                      A
 Frequencies --   1028.6423              1039.6293              1058.2180
 Red. masses --      1.9827                 2.2522                 2.0843
 Frc consts  --      1.2361                 1.4342                 1.3752
 IR Inten    --     18.2611                67.4794                21.9116

                     34                     35                     36
                      A                      A                      A
 Frequencies --   1067.6744              1073.3151              1078.4944
 Red. masses --      1.6218                 2.0518                 2.3875
 Frc consts  --      1.0893                 1.3926                 1.6362
 IR Inten    --     17.0973               169.7328               170.1264

                     37                     38                     39
                      A                      A                      A
 Frequencies --   1099.4929              1146.8975              1155.8151
 Red. masses --      1.6525                 2.4937                 2.7775
 Frc consts  --      1.1770                 1.9326                 2.1861
 IR Inten    --     25.7544               182.3233                88.0962

                     40                     41                     42
                      A                      A                      A
 Frequencies --   1176.4940              1180.5281              1213.1806
 Red. masses --      2.5218                 2.8929                 1.4731
 Frc consts  --      2.0565                 2.3754                 1.2774
 IR Inten    --     42.5363                65.1559                30.0474

                     43                     44                     45
                      A                      A                      A
 Frequencies --   1226.3593              1239.8263              1247.3323
 Red. masses --      1.3603                 1.8276                 1.8910
 Frc consts  --      1.2053                 1.6552                 1.7335
 IR Inten    --     33.0734                73.4625                61.7487

                     46                     47                     48
                      A                      A                      A
 Frequencies --   1284.2674              1305.1028              1320.7347
 Red. masses --      1.2066                 1.1350                 1.1515
 Frc consts  --      1.1725                 1.1390                 1.1834
 IR Inten    --     21.6053                 5.7038                 5.6633

                     49                     50                     51
                      A                      A                      A
 Frequencies --   1338.1327              1355.4631              1360.2275
 Red. masses --      1.2530                 1.3224                 1.4734
 Frc consts  --      1.3219                 1.4315                 1.6062
 IR Inten    --     13.8868                30.2514                 6.2437

                     52                     53                     54
                      A                      A                      A
 Frequencies --   1367.3889              1379.1588              1382.9498
 Red. masses --      1.4185                 1.3954                 1.4783
 Frc consts  --      1.5627                 1.5638                 1.6658
 IR Inten    --      2.4993                24.9223                 9.0167

                     55                     56                     57
                      A                      A                      A
 Frequencies --   1391.5824              1394.6863              1402.5037
 Red. masses --      1.5580                 1.4137                 1.3608
 Frc consts  --      1.7776                 1.6202                 1.5771
 IR Inten    --     12.5568                25.6906                 3.6168

                     58                     59                     60
                      A                      A                      A
 Frequencies --   1409.4636              1422.5237              1430.6274
 Red. masses --      1.4328                 1.3344                 1.3617
 Frc consts  --      1.6770                 1.5909                 1.6420
 IR Inten    --      6.0069                 7.2691                 5.9747

                     61                     62                     63
                      A                      A                      A
 Frequencies --   1438.9717              1475.9924              1480.3962
 Red. masses --      1.4066                 1.0913                 1.0977
 Frc consts  --      1.7160                 1.4007                 1.4174
 IR Inten    --     12.9995                 5.9322                 3.4822

                     64                     65                     66
                      A                      A                      A
 Frequencies --   1486.8647              1487.6077              1492.2765
 Red. masses --      1.0863                 1.1111                 1.0887
 Frc consts  --      1.4149                 1.4488                 1.4285
 IR Inten    --     11.6468                17.4624                 3.4138

                     67                     68                     69
                      A                      A                      A
 Frequencies --   1497.1719              1509.9555              1511.7505
 Red. masses --      1.1072                 1.1013                 1.0934
 Frc consts  --      1.4623                 1.4794                 1.4723
 IR Inten    --     22.4621                 7.8493                 4.4175

                     70                     71                     72
                      A                      A                      A
 Frequencies --   3012.4486              3026.8424              3060.7014
 Red. masses --      1.0708                 1.0688                 1.0675
 Frc consts  --      5.7250                 5.7694                 5.8918
 IR Inten    --     78.2791                64.5523                30.1662

                     73                     74                     75
                      A                      A                      A
 Frequencies --   3064.5311              3067.9350              3069.4338
 Red. masses --      1.0682                 1.0667                 1.0661
 Frc consts  --      5.9106                 5.9154                 5.9181
 IR Inten    --      6.4643                40.7179                53.7877

                     76                     77                     78
                      A                      A                      A
 Frequencies --   3071.5303              3075.1141              3078.3708
 Red. masses --      1.0725                 1.0738                 1.0612
 Frc consts  --      5.9618                 5.9830                 5.9249
 IR Inten    --     26.3705                41.3425                19.2266

                     79                     80                     81
                      A                      A                      A
 Frequencies --   3085.5391              3114.1322              3116.5365
 Red. masses --      1.0791                 1.0974                 1.0977
 Frc consts  --      6.0530                 6.2704                 6.2819
 IR Inten    --     84.9105                42.7994                38.4286

                     82                     83                     84
                      A                      A                      A
 Frequencies --   3119.2581              3123.9897              3130.3550
 Red. masses --      1.1018                 1.1028                 1.0955
 Frc consts  --      6.3164                 6.3409                 6.3248
 IR Inten    --     71.6507                55.0582                39.1186

                     85                     86                     87
                      A                      A                      A
 Frequencies --   3130.5977              3132.4464              3137.3045
 Red. masses --      1.0973                 1.0958                 1.1013
 Frc consts  --      6.3359                 6.3348                 6.3863
 IR Inten    --     59.9710                29.4270                42.7748

 - Thermochemistry -
 -------------------
 Temperature   298.150 Kelvin.  Pressure   1.00000 Atm.
 Atom     1 has atomic number  6 and mass  12.00000

 Molecular mass:   186.12559 amu.
 Principal axes and moments of inertia in atomic units:
                           1         2         3
     Eigenvalues --  1085.969633970.162804046.50633
           X            0.99984   0.01687  -0.00540
           Y           -0.01635   0.99624   0.08509
           Z            0.00682  -0.08499   0.99636
 This molecule is an asymmetric top.
 Rotational symmetry number  1.
 Warning -- assumption of classical behavior for rotation
           may cause significant error
 Rotational temperatures (Kelvin)      0.07976     0.02182     0.02140
 Rotational constants (GHZ):           1.66187     0.45458     0.44600
    1 imaginary frequencies ignored.
 Zero-point vibrational energy     736916.9 (Joules/Mol)
                                  176.12736 (Kcal/Mol)
 Warning -- explicit consideration of  16 degrees of freedom as
           vibrations may cause significant error
 Vibrational temperatures:     77.27   113.10   219.91   243.57   338.47
          (Kelvin)            369.52   411.16   483.88   583.57   586.52
                              603.96   640.35   732.99   745.38   753.82
                              781.56   956.92  1075.04  1195.32  1211.38
                             1222.87  1255.28  1268.90  1290.74  1299.71
                             1309.31  1335.87  1365.39  1452.39  1479.99
                             1495.79  1522.54  1536.15  1544.26  1551.71
                             1581.93  1650.13  1662.96  1692.71  1698.52
                             1745.50  1764.46  1783.83  1794.63  1847.77
                             1877.75  1900.24  1925.27  1950.21  1957.06
                             1967.37  1984.30  1989.76  2002.18  2006.64
                             2017.89  2027.90  2046.69  2058.35  2070.36
                             2123.62  2129.96  2139.27  2140.34  2147.05
                             2154.10  2172.49  2175.07  4334.24  4354.95
                             4403.67  4409.18  4414.07  4416.23  4419.25
                             4424.40  4429.09  4439.40  4480.54  4484.00
                             4487.92  4494.72  4503.88  4504.23  4506.89
                             4513.88

 Zero-point correction=                           0.280677 (Hartree/Particle)
 Thermal correction to Energy=                    0.291500
 Thermal correction to Enthalpy=                  0.292444
 Thermal correction to Gibbs Free Energy=         0.243897
 Sum of electronic and zero-point Energies=           -617.218482
 Sum of electronic and thermal Energies=              -617.207659
 Sum of electronic and thermal Enthalpies=            -617.206715
 Sum of electronic and thermal Free Energies=         -617.255262

                     E (Thermal)             CV                S
                      KCal/Mol        Cal/Mol-Kelvin    Cal/Mol-Kelvin
 Total                  182.919             44.571            102.177
 Electronic               0.000              0.000              0.000
 Translational            0.889              2.981             41.570
 Rotational               0.889              2.981             31.234
 Vibrational            181.141             38.609             29.372
 Vibration     1          0.596              1.976              4.676
 Vibration     2          0.600              1.964              3.925
 Vibration     3          0.619              1.900              2.636
 Vibration     4          0.625              1.880              2.443
 Vibration     5          0.655              1.787              1.839
 Vibration     6          0.666              1.751              1.683
 Vibration     7          0.684              1.700              1.499
 Vibration     8          0.717              1.603              1.230
 Vibration     9          0.771              1.458              0.942
 Vibration    10          0.772              1.454              0.935
 Vibration    11          0.782              1.427              0.893
 Vibration    12          0.804              1.372              0.811
 Vibration    13          0.865              1.229              0.635
 Vibration    14          0.873              1.210              0.614
 Vibration    15          0.879              1.197              0.601
 Vibration    16          0.898              1.155              0.558

 Optimization completed.
    -- Stationary point found.
 Normal termination of Gaussian 16 at Mon Nov  5 03:47:33 2018.
