 Gaussian 16, Revision A.03,
 Gaussian 16:  ES64L-G16RevA.03 25-Dec-2016

 ----------------------------------------------------------------------
 #M062X/6-311++G(2d,2p) opt=ModRedundant freq=noraman SCRF=(Solvent=Wat
 er)
 ----------------------------------------------------------------------

 ----------------------------
 D_1a_4a_L_PHI.inp_extract_21
 ----------------------------
 Symbolic Z-matrix:
 Charge =  0 Multiplicity = 1

 SCF Done:  E(RM062X) =  -617.489854820     A.U. after   12 cycles
 SCF Done:  E(RM062X) =  -617.490176744     A.U. after   11 cycles
 SCF Done:  E(RM062X) =  -617.491233110     A.U. after   11 cycles
 SCF Done:  E(RM062X) =  -617.491592984     A.U. after   10 cycles
 SCF Done:  E(RM062X) =  -617.491644609     A.U. after    9 cycles
 SCF Done:  E(RM062X) =  -617.491647931     A.U. after    8 cycles
 SCF Done:  E(RM062X) =  -617.491649128     A.U. after    8 cycles
 SCF Done:  E(RM062X) =  -617.491649352     A.U. after    7 cycles
 Optimization completed.
    -- Stationary point found.
 Normal termination of Gaussian 16 at Mon Nov  5 03:36:26 2018.

 ----------------------------------------------------------------------
 #N Geom=AllCheck Guess=TCheck SCRF=Check GenChk RM062X/6-311++G(2d,2p)
  Freq
 ----------------------------------------------------------------------

 Structure from the checkpoint file:  "D_1a_4a_L_PHI.inp_extract_21.chk"
 ----------------------------
 D_1a_4a_L_PHI.inp_extract_21
 ----------------------------
 Charge =  0 Multiplicity = 1

                         Standard orientation:
 ---------------------------------------------------------------------
 Center     Atomic      Atomic             Coordinates (Angstroms)
 Number     Number       Type             X           Y           Z
 ---------------------------------------------------------------------
      1          6           0        3.305302   -0.356761   -0.725029
      2          6           0        1.159822    0.341499    1.133415
      3          6           0       -1.714946    1.331573   -0.455033
      4          6           0        2.525420    0.923601   -1.011235
      5          6           0       -3.539729   -0.317334   -0.043410
      6          8           0       -2.583858   -1.367386    0.025048
      7          6           0        2.397425   -1.343962   -0.017116
      8          6           0       -0.737896    0.156142   -0.456745
      9          6           0       -2.935398    1.003844    0.403968
     10          6           0       -1.476496   -1.124566   -0.821874
     11          8           0        1.963434   -0.812511    1.230767
     12          8           0       -0.175106   -0.010830    0.841808
     13          6           0        1.808831    1.419294    0.252580
     14          1           0        4.159201   -0.146064   -0.077378
     15          1           0        3.686413   -0.793587   -1.648037
     16          1           0       -2.030445    1.518597   -1.484799
     17          1           0        3.191932    1.709060   -1.366494
     18          1           0        1.820675    0.732079   -1.820502
     19          1           0        1.530547   -1.589313   -0.640833
     20          1           0        2.913262   -2.271985    0.218398
     21          1           0       -2.640650    0.921965    1.451096
     22          1           0       -3.683575    1.793014    0.328513
     23          1           0       -1.813050   -1.054122   -1.863671
     24          1           0       -0.813971   -1.982474   -0.722286
     25          1           0        2.554245    1.893976    0.892636
     26          1           0        1.070454    2.184379    0.014801
     27          1           0        1.116951    0.712942    2.155726
     28          1           0       -3.908939   -0.233318   -1.073660
     29          1           0       -4.368055   -0.615435    0.595818
     30          1           0       -1.213005    2.229944   -0.096974
     31          1           0        0.038250    0.316170   -1.200465
 ---------------------------------------------------------------------

 SCF Done:  E(RM062X) =  -617.491649352     A.U. after    1 cycles

 The electronic state is 1-A.
 Alpha  occ. eigenvalues --  -19.62936 -19.62870 -19.62780 -10.63890 -10.58946
 Alpha  occ. eigenvalues --  -10.58127 -10.58056 -10.57903 -10.53778 -10.53511
 Alpha  occ. eigenvalues --  -10.53242 -10.53044 -10.52904  -1.19568  -1.16492
 Alpha  occ. eigenvalues --   -1.13261  -0.90495  -0.90322  -0.87402  -0.84822
 Alpha  occ. eigenvalues --   -0.74906  -0.74183  -0.73656  -0.71182  -0.66503
 Alpha  occ. eigenvalues --   -0.62836  -0.59608  -0.58433  -0.57257  -0.55573
 Alpha  occ. eigenvalues --   -0.54800  -0.53364  -0.52402  -0.50834  -0.50163
 Alpha  occ. eigenvalues --   -0.49336  -0.46782  -0.46253  -0.45642  -0.45145
 Alpha  occ. eigenvalues --   -0.43995  -0.42420  -0.41114  -0.40263  -0.39099
 Alpha  occ. eigenvalues --   -0.38567  -0.37570  -0.36627  -0.35039  -0.33222
 Alpha  occ. eigenvalues --   -0.31737
 Alpha virt. eigenvalues --   -0.00213   0.00720   0.00855   0.01192   0.02273
 Alpha virt. eigenvalues --    0.02605   0.02685   0.03263   0.03641   0.04621
 Alpha virt. eigenvalues --    0.04768   0.04867   0.05596   0.06014   0.07462

 Mulliken charges:
               1
     1  C   -0.321055
     2  C   -0.124810
     3  C   -0.437386
     4  C   -0.301320
     5  C   -0.229288
     6  O   -0.311721
     7  C   -0.196836
     8  C   -0.027565
     9  C   -0.223492
    10  C   -0.359592
    11  O   -0.281332
    12  O   -0.302276
    13  C   -0.287428
    14  H    0.172798
    15  H    0.163276
    16  H    0.218310
    17  H    0.190106
    18  H    0.174226
    19  H    0.103744
    20  H    0.227334
    21  H    0.171554
    22  H    0.185769
    23  H    0.188521
    24  H    0.216844
    25  H    0.224199
    26  H    0.181696
    27  H    0.249175
    28  H    0.137269
    29  H    0.200356
    30  H    0.147840
    31  H    0.251083
 Sum of Mulliken charges =  -0.00000

 Dipole moment (field-independent basis, Debye):
    X=              1.0529    Y=              3.4802    Z=             -4.1582  Tot=              5.5237
 Quadrupole moment (field-independent basis, Debye-Ang):
   XX=            -74.6814   YY=            -81.1072   ZZ=            -81.5801
   XY=             -4.3347   XZ=             -1.2538   YZ=              4.7327

  Exact polarizability: 173.723  -3.050 156.738  -1.550   2.241 153.080
 Approx polarizability: 147.213  -2.192 140.901   0.272   0.656 143.760

 ******    1 imaginary frequencies (negative Signs) ******

                      1                      2                      3
                      A                      A                      A
 Frequencies --    -39.8066                52.1271                97.9225
 Red. masses --      4.0820                 4.2308                 3.4537
 Frc consts  --      0.0038                 0.0068                 0.0195
 IR Inten    --      2.5239                 0.1845                 0.4534

                      4                      5                      6
                      A                      A                      A
 Frequencies --    120.1708               200.4645               206.0386
 Red. masses --      3.4314                 3.2914                 3.1093
 Frc consts  --      0.0292                 0.0779                 0.0778
 IR Inten    --      2.0468                 2.2410                 8.1033

                      7                      8                      9
                      A                      A                      A
 Frequencies --    241.7098               294.1577               336.6573
 Red. masses --      2.3854                 2.4292                 1.8112
 Frc consts  --      0.0821                 0.1238                 0.1209
 IR Inten    --      3.2047                 0.6524                 1.3103

                     10                     11                     12
                      A                      A                      A
 Frequencies --    367.8289               423.0337               426.8794
 Red. masses --      2.2549                 2.0966                 2.7042
 Frc consts  --      0.1798                 0.2211                 0.2903
 IR Inten    --      4.5528                 9.1849                 1.3735

                     13                     14                     15
                      A                      A                      A
 Frequencies --    439.4881               479.8364               516.1426
 Red. masses --      3.6270                 3.8473                 3.2306
 Frc consts  --      0.4128                 0.5219                 0.5071
 IR Inten    --      4.8698                 3.0419                13.7141

                     16                     17                     18
                      A                      A                      A
 Frequencies --    524.7681               555.9475               674.4311
 Red. masses --      2.4650                 2.2709                 2.5932
 Frc consts  --      0.4000                 0.4135                 0.6950
 IR Inten    --      1.3882                17.2586                 4.4471

                     19                     20                     21
                      A                      A                      A
 Frequencies --    758.3594               792.5016               829.6608
 Red. masses --      2.7632                 2.3539                 2.1710
 Frc consts  --      0.9363                 0.8711                 0.8805
 IR Inten    --      9.1497                 2.4006                13.5245

                     22                     23                     24
                      A                      A                      A
 Frequencies --    856.4940               862.4806               877.7614
 Red. masses --      3.0973                 2.1234                 1.7308
 Frc consts  --      1.3387                 0.9306                 0.7857
 IR Inten    --      7.3543                 5.9872                16.0555

                     25                     26                     27
                      A                      A                      A
 Frequencies --    898.5014               900.8479               911.7490
 Red. masses --      2.5189                 2.3636                 2.2959
 Frc consts  --      1.1981                 1.1301                 1.1245
 IR Inten    --     38.3542                34.0289                35.4497

                     28                     29                     30
                      A                      A                      A
 Frequencies --    925.7859               945.3090               989.6537
 Red. masses --      1.9868                 1.7328                 1.9388
 Frc consts  --      1.0033                 0.9123                 1.1188
 IR Inten    --     28.3508                 7.0205                13.7696

                     31                     32                     33
                      A                      A                      A
 Frequencies --   1027.2618              1046.3104              1060.2014
 Red. masses --      1.9790                 2.3123                 2.3952
 Frc consts  --      1.2304                 1.4915                 1.5863
 IR Inten    --     40.2134                52.4304               167.6602

                     34                     35                     36
                      A                      A                      A
 Frequencies --   1064.5549              1073.4086              1086.0291
 Red. masses --      1.9772                 2.1744                 1.6353
 Frc consts  --      1.3202                 1.4761                 1.1364
 IR Inten    --    154.2583                73.4187                52.6644

                     37                     38                     39
                      A                      A                      A
 Frequencies --   1100.7800              1147.7259              1151.3636
 Red. masses --      1.5917                 2.5545                 2.6229
 Frc consts  --      1.1363                 1.9826                 2.0486
 IR Inten    --     25.5332                41.5149               145.5411

                     40                     41                     42
                      A                      A                      A
 Frequencies --   1165.2209              1187.6818              1219.7253
 Red. masses --      2.3701                 3.2252                 1.5033
 Frc consts  --      1.8959                 2.6805                 1.3177
 IR Inten    --      8.1878               169.6872                71.5787

                     43                     44                     45
                      A                      A                      A
 Frequencies --   1227.8163              1240.2492              1248.3047
 Red. masses --      1.3653                 1.6737                 1.8478
 Frc consts  --      1.2127                 1.5168                 1.6965
 IR Inten    --     13.6209                14.0238                85.7068

                     46                     47                     48
                      A                      A                      A
 Frequencies --   1299.8628              1301.6777              1319.4960
 Red. masses --      1.1147                 1.2493                 1.1978
 Frc consts  --      1.1097                 1.2471                 1.2287
 IR Inten    --     13.2224                49.6344                12.6178

                     49                     50                     51
                      A                      A                      A
 Frequencies --   1336.9356              1355.9353              1364.7918
 Red. masses --      1.2714                 1.4805                 1.3184
 Frc consts  --      1.3389                 1.6037                 1.4469
 IR Inten    --     11.6772                15.8193                 3.6257

                     52                     53                     54
                      A                      A                      A
 Frequencies --   1367.8675              1386.5360              1387.5598
 Red. masses --      1.3496                 1.4997                 1.3786
 Frc consts  --      1.4878                 1.6987                 1.5639
 IR Inten    --      2.6808                 3.1711                 5.6527

                     55                     56                     57
                      A                      A                      A
 Frequencies --   1392.2442              1401.6189              1405.5200
 Red. masses --      1.5993                 1.3219                 1.3616
 Frc consts  --      1.8265                 1.5301                 1.5848
 IR Inten    --      6.4702                 9.8088                 1.4189

                     58                     59                     60
                      A                      A                      A
 Frequencies --   1411.1495              1421.5660              1431.9085
 Red. masses --      1.4097                 1.3497                 1.3807
 Frc consts  --      1.6540                 1.6070                 1.6679
 IR Inten    --     19.8273                28.8713                 1.3419

                     61                     62                     63
                      A                      A                      A
 Frequencies --   1444.5677              1475.0645              1477.5409
 Red. masses --      1.2119                 1.0912                 1.0956
 Frc consts  --      1.4901                 1.3989                 1.4092
 IR Inten    --      2.1764                 5.0265                 4.2850

                     64                     65                     66
                      A                      A                      A
 Frequencies --   1482.8498              1484.8696              1490.3120
 Red. masses --      1.0949                 1.1093                 1.0886
 Frc consts  --      1.4184                 1.4411                 1.4246
 IR Inten    --      6.4751                25.4712                 1.9826

                     67                     68                     69
                      A                      A                      A
 Frequencies --   1509.7470              1510.9183              1520.7066
 Red. masses --      1.0966                 1.0989                 1.0933
 Frc consts  --      1.4726                 1.4781                 1.4896
 IR Inten    --      9.0163                 9.1697                 6.4137

                     70                     71                     72
                      A                      A                      A
 Frequencies --   3012.7874              3022.8054              3038.6866
 Red. masses --      1.0707                 1.0691                 1.0697
 Frc consts  --      5.7260                 5.7556                 5.8194
 IR Inten    --     79.4061                70.4058                58.6574

                     73                     74                     75
                      A                      A                      A
 Frequencies --   3064.9241              3067.4279              3078.8778
 Red. masses --      1.0649                 1.0634                 1.0605
 Frc consts  --      5.8938                 5.8951                 5.9229
 IR Inten    --     35.9982                35.9882                32.1429

                     76                     77                     78
                      A                      A                      A
 Frequencies --   3079.9335              3082.6143              3110.9457
 Red. masses --      1.0673                 1.0615                 1.0892
 Frc consts  --      5.9651                 5.9428                 6.2108
 IR Inten    --      8.0888                23.7209                71.1377

                     79                     80                     81
                      A                      A                      A
 Frequencies --   3114.3516              3118.1943              3122.6119
 Red. masses --      1.0958                 1.0986                 1.1016
 Frc consts  --      6.2620                 6.2934                 6.3289
 IR Inten    --     16.6954                36.4844                62.1115

                     82                     83                     84
                      A                      A                      A
 Frequencies --   3124.6578              3129.4267              3131.6585
 Red. masses --      1.1025                 1.0949                 1.0971
 Frc consts  --      6.3419                 6.3175                 6.3394
 IR Inten    --     88.4772                38.2146                50.6931

                     85                     86                     87
                      A                      A                      A
 Frequencies --   3131.8449              3134.3160              3159.2365
 Red. masses --      1.0994                 1.0953                 1.0827
 Frc consts  --      6.3534                 6.3394                 6.3667
 IR Inten    --     26.3609                38.3604                32.3991

 - Thermochemistry -
 -------------------
 Temperature   298.150 Kelvin.  Pressure   1.00000 Atm.
 Atom     1 has atomic number  6 and mass  12.00000

 Molecular mass:   186.12559 amu.
 Principal axes and moments of inertia in atomic units:
                           1         2         3
     Eigenvalues --  1063.259773795.012484070.06341
           X            0.99995  -0.00670  -0.00754
           Y            0.00705   0.99887   0.04700
           Z            0.00722  -0.04705   0.99887
 This molecule is an asymmetric top.
 Rotational symmetry number  1.
 Warning -- assumption of classical behavior for rotation
           may cause significant error
 Rotational temperatures (Kelvin)      0.08146     0.02282     0.02128
 Rotational constants (GHZ):           1.69737     0.47556     0.44342
    1 imaginary frequencies ignored.
 Zero-point vibrational energy     737257.9 (Joules/Mol)
                                  176.20886 (Kcal/Mol)
 Warning -- explicit consideration of  16 degrees of freedom as
           vibrations may cause significant error
 Vibrational temperatures:     75.00   140.89   172.90   288.42   296.44
          (Kelvin)            347.77   423.23   484.37   529.22   608.65
                              614.18   632.33   690.38   742.61   755.02
                              799.88   970.36  1091.11  1140.23  1193.70
                             1232.30  1240.92  1262.90  1292.74  1296.12
                             1311.80  1332.00  1360.09  1423.89  1478.00
                             1505.41  1525.39  1531.66  1544.40  1562.55
                             1583.78  1651.32  1656.56  1676.49  1708.81
                             1754.91  1766.55  1784.44  1796.03  1870.21
                             1872.82  1898.46  1923.55  1950.89  1963.63
                             1968.06  1994.92  1996.39  2003.13  2016.62
                             2022.23  2030.33  2045.32  2060.20  2078.41
                             2122.29  2125.85  2133.49  2136.40  2144.23
                             2172.19  2173.87  2187.96  4334.73  4349.14
                             4371.99  4409.74  4413.34  4429.82  4431.34
                             4435.19  4475.96  4480.86  4486.39  4492.74
                             4495.69  4502.55  4505.76  4506.03  4509.58
                             4545.44

 Zero-point correction=                           0.280807 (Hartree/Particle)
 Thermal correction to Energy=                    0.291702
 Thermal correction to Enthalpy=                  0.292646
 Thermal correction to Gibbs Free Energy=         0.244017
 Sum of electronic and zero-point Energies=           -617.210843
 Sum of electronic and thermal Energies=              -617.199947
 Sum of electronic and thermal Enthalpies=            -617.199003
 Sum of electronic and thermal Free Energies=         -617.247632

                     E (Thermal)             CV                S
                      KCal/Mol        Cal/Mol-Kelvin    Cal/Mol-Kelvin
 Total                  183.046             44.737            102.349
 Electronic               0.000              0.000              0.000
 Translational            0.889              2.981             41.570
 Rotational               0.889              2.981             31.174
 Vibrational            181.268             38.776             29.605
 Vibration     1          0.596              1.977              4.735
 Vibration     2          0.603              1.951              3.495
 Vibration     3          0.609              1.932              3.098
 Vibration     4          0.638              1.839              2.129
 Vibration     5          0.641              1.831              2.078
 Vibration     6          0.658              1.776              1.790
 Vibration     7          0.689              1.685              1.450
 Vibration     8          0.717              1.602              1.228
 Vibration     9          0.740              1.538              1.089
 Vibration    10          0.785              1.420              0.882
 Vibration    11          0.789              1.412              0.869
 Vibration    12          0.800              1.384              0.828
 Vibration    13          0.836              1.295              0.711
 Vibration    14          0.871              1.214              0.619
 Vibration    15          0.880              1.195              0.599
 Vibration    16          0.911              1.127              0.532

                           ! Non-Optimized Parameters !
 Normal termination of Gaussian 16 at Mon Nov  5 04:32:08 2018.
