 Gaussian 16, Revision A.03,
 Gaussian 16:  ES64L-G16RevA.03 25-Dec-2016

 ----------------------------------------------------------------------
 #M062X/6-311++G(2d,2p) opt=ModRedundant freq=noraman SCRF=(Solvent=Wat
 er)
 ----------------------------------------------------------------------

 ---------------------------
 D_1a_4a_L_PHI.inp_extract_6
 ---------------------------
 Symbolic Z-matrix:
 Charge =  0 Multiplicity = 1

 SCF Done:  E(RM062X) =  -617.498878450     A.U. after   12 cycles
 SCF Done:  E(RM062X) =  -617.500529231     A.U. after   10 cycles
 SCF Done:  E(RM062X) =  -617.500820329     A.U. after   11 cycles
 SCF Done:  E(RM062X) =  -617.500994930     A.U. after   10 cycles
 SCF Done:  E(RM062X) =  -617.501008669     A.U. after    9 cycles
 SCF Done:  E(RM062X) =  -617.501010485     A.U. after    8 cycles
 SCF Done:  E(RM062X) =  -617.501010935     A.U. after    7 cycles
 Optimization completed.
    -- Stationary point found.
 Normal termination of Gaussian 16 at Mon Nov  5 04:05:40 2018.

 ----------------------------------------------------------------------
 #N Geom=AllCheck Guess=TCheck SCRF=Check GenChk RM062X/6-311++G(2d,2p)
  Freq
 ----------------------------------------------------------------------

 Structure from the checkpoint file:  "D_1a_4a_L_PHI.inp_extract_6.chk"
 ---------------------------
 D_1a_4a_L_PHI.inp_extract_6
 ---------------------------
 Charge =  0 Multiplicity = 1

                         Standard orientation:
 ---------------------------------------------------------------------
 Center     Atomic      Atomic             Coordinates (Angstroms)
 Number     Number       Type             X           Y           Z
 ---------------------------------------------------------------------
      1          6           0       -3.473161   -0.012358    0.556077
      2          6           0       -0.992579   -0.200813   -0.887775
      3          6           0        1.801406    0.748438    1.340604
      4          6           0       -2.918320    1.234510   -0.127273
      5          6           0        3.508131    0.107422   -0.363402
      6          8           0        2.564395   -0.749422   -0.992943
      7          6           0       -2.320087   -0.909299    0.967194
      8          6           0        0.858556   -0.249064    0.680876
      9          6           0        2.821311    1.273316    0.330403
     10          6           0        1.664281   -1.313588   -0.057077
     11          8           0       -1.499355   -1.280751   -0.146099
     12          8           0        0.037113    0.497826   -0.210360
     13          6           0       -2.050855    0.804869   -1.306093
     14          1           0       -4.129511   -0.553780   -0.129216
     15          1           0       -4.054808    0.244201    1.441767
     16          1           0        2.320734    0.236468    2.154093
     17          1           0       -3.721827    1.885246   -0.469747
     18          1           0       -2.318103    1.803378    0.586280
     19          1           0       -1.713657   -0.392763    1.717368
     20          1           0       -2.666458   -1.847410    1.394645
     21          1           0        2.320848    1.888024   -0.418593
     22          1           0        3.569374    1.893514    0.824770
     23          1           0        2.215087   -1.908372    0.682403
     24          1           0        1.008129   -1.980924   -0.612248
     25          1           0       -2.674651    0.327457   -2.064170
     26          1           0       -1.550269    1.651959   -1.773347
     27          1           0       -0.559781   -0.676950   -1.772225
     28          1           0        4.089813   -0.473320    0.364086
     29          1           0        4.181456    0.449516   -1.146607
     30          1           0        1.222054    1.560681    1.779065
     31          1           0        0.252250   -0.748750    1.435684
 ---------------------------------------------------------------------

 SCF Done:  E(RM062X) =  -617.501010935     A.U. after    1 cycles

 The electronic state is 1-A.
 Alpha  occ. eigenvalues --  -19.63566 -19.62792 -19.62788 -10.63541 -10.58554
 Alpha  occ. eigenvalues --  -10.58160 -10.57842 -10.57801 -10.53183 -10.53168
 Alpha  occ. eigenvalues --  -10.53098 -10.53036 -10.52822  -1.20021  -1.16338
 Alpha  occ. eigenvalues --   -1.13161  -0.91149  -0.89932  -0.87000  -0.84625
 Alpha  occ. eigenvalues --   -0.74724  -0.74173  -0.73114  -0.71073  -0.65830
 Alpha  occ. eigenvalues --   -0.62925  -0.59759  -0.58480  -0.57892  -0.55363
 Alpha  occ. eigenvalues --   -0.54124  -0.52818  -0.52668  -0.50257  -0.50066
 Alpha  occ. eigenvalues --   -0.48177  -0.46951  -0.46350  -0.45585  -0.45477
 Alpha  occ. eigenvalues --   -0.43631  -0.43266  -0.40527  -0.39818  -0.39372
 Alpha  occ. eigenvalues --   -0.38452  -0.37876  -0.36041  -0.35054  -0.33823
 Alpha  occ. eigenvalues --   -0.31504
 Alpha virt. eigenvalues --   -0.00185   0.00829   0.00904   0.01026   0.02219
 Alpha virt. eigenvalues --    0.02476   0.02712   0.03279   0.03480   0.04538
 Alpha virt. eigenvalues --    0.04677   0.04914   0.05528   0.05894   0.07081

 Mulliken charges:
               1
     1  C   -0.400556
     2  C   -0.045166
     3  C   -0.498023
     4  C   -0.284490
     5  C   -0.179172
     6  O   -0.278954
     7  C   -0.103523
     8  C   -0.029966
     9  C   -0.282586
    10  C   -0.353378
    11  O   -0.240320
    12  O   -0.250415
    13  C   -0.417458
    14  H    0.167249
    15  H    0.178827
    16  H    0.215710
    17  H    0.187175
    18  H    0.164496
    19  H    0.130919
    20  H    0.204553
    21  H    0.168439
    22  H    0.177991
    23  H    0.189367
    24  H    0.227643
    25  H    0.198519
    26  H    0.180288
    27  H    0.237203
    28  H    0.141178
    29  H    0.202059
    30  H    0.166038
    31  H    0.226352
 Sum of Mulliken charges =  -0.00000

 Dipole moment (field-independent basis, Debye):
    X=             -1.1511    Y=              0.9102    Z=              2.7696  Tot=              3.1343
 Quadrupole moment (field-independent basis, Debye-Ang):
   XX=            -71.4717   YY=            -82.4693   ZZ=            -78.8556
   XY=              0.8646   XZ=              4.2013   YZ=             -2.9678

  Exact polarizability: 172.064   2.170 155.545  -0.884  -2.203 156.345
 Approx polarizability: 145.080   2.368 142.262   0.279  -1.264 144.345

                      1                      2                      3
                      A                      A                      A
 Frequencies --     43.0832                62.2704               104.2620
 Red. masses --      3.8638                 3.9980                 3.1438
 Frc consts  --      0.0042                 0.0091                 0.0201
 IR Inten    --      0.0578                 4.5820                 1.4407

                      4                      5                      6
                      A                      A                      A
 Frequencies --    149.0609               176.9133               214.6524
 Red. masses --      3.6705                 2.8521                 3.8250
 Frc consts  --      0.0481                 0.0526                 0.1038
 IR Inten    --      2.2932                 2.5824                 7.7643

                      7                      8                      9
                      A                      A                      A
 Frequencies --    256.6857               280.3141               343.1380
 Red. masses --      2.6821                 2.3536                 2.1034
 Frc consts  --      0.1041                 0.1090                 0.1459
 IR Inten    --      6.4850                10.7431                 4.9306

                     10                     11                     12
                      A                      A                      A
 Frequencies --    378.7565               393.6860               436.4193
 Red. masses --      2.2992                 2.1385                 3.6737
 Frc consts  --      0.1943                 0.1953                 0.4123
 IR Inten    --      3.5614                 2.3235                 5.8986

                     13                     14                     15
                      A                      A                      A
 Frequencies --    442.9672               487.4396               521.7964
 Red. masses --      2.1393                 4.1251                 2.6386
 Frc consts  --      0.2473                 0.5775                 0.4233
 IR Inten    --      5.0315                 9.0769                 3.1349

                     16                     17                     18
                      A                      A                      A
 Frequencies --    530.6684               590.7554               700.0334
 Red. masses --      1.9879                 2.6679                 3.0499
 Frc consts  --      0.3298                 0.5486                 0.8806
 IR Inten    --      1.2940                 6.9077                 3.4642

                     19                     20                     21
                      A                      A                      A
 Frequencies --    743.4449               823.3575               839.5411
 Red. masses --      2.6533                 1.9707                 2.5007
 Frc consts  --      0.8640                 0.7871                 1.0385
 IR Inten    --     13.0588                 0.9821                 8.7637

                     22                     23                     24
                      A                      A                      A
 Frequencies --    845.5574               866.9765               872.7457
 Red. masses --      3.4337                 2.2861                 1.6138
 Frc consts  --      1.4464                 1.0124                 0.7242
 IR Inten    --     10.6554                12.3214                15.3593

                     25                     26                     27
                      A                      A                      A
 Frequencies --    899.0224               905.5182               911.7721
 Red. masses --      2.4087                 2.6276                 2.5655
 Frc consts  --      1.1470                 1.2694                 1.2566
 IR Inten    --     18.1109                14.6359                54.7019

                     28                     29                     30
                      A                      A                      A
 Frequencies --    928.1302               949.5807               992.0085
 Red. masses --      1.7322                 1.7119                 1.8241
 Frc consts  --      0.8791                 0.9095                 1.0576
 IR Inten    --      6.2885                23.2053                21.7844

                     31                     32                     33
                      A                      A                      A
 Frequencies --   1037.9190              1040.6123              1056.6098
 Red. masses --      2.1703                 2.3051                 1.8465
 Frc consts  --      1.3775                 1.4707                 1.2146
 IR Inten    --      2.6506                49.6682                13.2058

                     34                     35                     36
                      A                      A                      A
 Frequencies --   1059.4004              1069.8885              1078.2999
 Red. masses --      2.1207                 1.7588                 2.3224
 Frc consts  --      1.4023                 1.1862                 1.5910
 IR Inten    --    228.1137                53.0279                55.5634

                     37                     38                     39
                      A                      A                      A
 Frequencies --   1104.3665              1153.9661              1156.6054
 Red. masses --      1.5229                 2.7484                 2.3433
 Frc consts  --      1.0943                 2.1563                 1.8469
 IR Inten    --     17.9751                27.6675               135.4180

                     40                     41                     42
                      A                      A                      A
 Frequencies --   1165.2637              1190.5873              1211.2979
 Red. masses --      2.6742                 2.8148                 1.4118
 Frc consts  --      2.1394                 2.3508                 1.2205
 IR Inten    --     92.7565               134.2633                 9.2445

                     43                     44                     45
                      A                      A                      A
 Frequencies --   1232.0559              1237.3958              1246.3001
 Red. masses --      1.4094                 1.6927                 1.7975
 Frc consts  --      1.2605                 1.5271                 1.6450
 IR Inten    --     28.8862               107.9648                46.6462

                     46                     47                     48
                      A                      A                      A
 Frequencies --   1291.1208              1301.7144              1327.1579
 Red. masses --      1.2229                 1.1349                 1.1570
 Frc consts  --      1.2011                 1.1331                 1.2007
 IR Inten    --     24.6170                36.3634                11.9524

                     49                     50                     51
                      A                      A                      A
 Frequencies --   1336.7078              1360.7808              1363.1937
 Red. masses --      1.2384                 1.4001                 1.3634
 Frc consts  --      1.3037                 1.5276                 1.4928
 IR Inten    --     16.8451                 9.2113                 0.6819

                     52                     53                     54
                      A                      A                      A
 Frequencies --   1370.2046              1384.6404              1386.9127
 Red. masses --      1.5769                 1.4011                 1.4181
 Frc consts  --      1.7443                 1.5826                 1.6071
 IR Inten    --      6.6889                14.5907                 1.9115

                     55                     56                     57
                      A                      A                      A
 Frequencies --   1394.1460              1394.9878              1404.7705
 Red. masses --      1.4479                 1.6153                 1.4545
 Frc consts  --      1.6581                 1.8520                 1.6911
 IR Inten    --     30.2812                 5.6747                 1.1337

                     58                     59                     60
                      A                      A                      A
 Frequencies --   1417.2091              1424.7784              1433.2571
 Red. masses --      1.3856                 1.3527                 1.2576
 Frc consts  --      1.6397                 1.6179                 1.5221
 IR Inten    --      3.8180                 5.5800                 1.5452

                     61                     62                     63
                      A                      A                      A
 Frequencies --   1448.9805              1474.7765              1475.0196
 Red. masses --      1.3426                 1.1019                 1.0862
 Frc consts  --      1.6608                 1.4120                 1.3923
 IR Inten    --     16.4839                 7.0559                 4.5484

                     64                     65                     66
                      A                      A                      A
 Frequencies --   1483.9972              1484.7362              1495.8213
 Red. masses --      1.0884                 1.1160                 1.1163
 Frc consts  --      1.4123                 1.4495                 1.4716
 IR Inten    --      7.7102                15.9610                15.6638

                     67                     68                     69
                      A                      A                      A
 Frequencies --   1500.2354              1509.3665              1512.5316
 Red. masses --      1.0814                 1.0938                 1.1027
 Frc consts  --      1.4341                 1.4682                 1.4864
 IR Inten    --      4.5744                 3.2361                12.4940

                     70                     71                     72
                      A                      A                      A
 Frequencies --   3011.7162              3021.7128              3047.8410
 Red. masses --      1.0708                 1.0707                 1.0696
 Frc consts  --      5.7226                 5.7601                 5.8542
 IR Inten    --     79.0190                69.8493                70.0259

                     73                     74                     75
                      A                      A                      A
 Frequencies --   3052.5163              3064.9337              3069.0455
 Red. masses --      1.0828                 1.0647                 1.0634
 Frc consts  --      5.9443                 5.8930                 5.9014
 IR Inten    --     45.7912                27.3377                25.6477

                     76                     77                     78
                      A                      A                      A
 Frequencies --   3070.4130              3079.7105              3080.5849
 Red. masses --      1.0624                 1.0644                 1.0605
 Frc consts  --      5.9012                 5.9481                 5.9298
 IR Inten    --     32.6926                55.3432                27.3111

                     79                     80                     81
                      A                      A                      A
 Frequencies --   3109.5134              3116.3526              3116.8000
 Red. masses --      1.0839                 1.0979                 1.1001
 Frc consts  --      6.1746                 6.2823                 6.2964
 IR Inten    --     63.5920                30.9964                41.1788

                     82                     83                     84
                      A                      A                      A
 Frequencies --   3120.5676              3125.4600              3130.6740
 Red. masses --      1.1019                 1.1010                 1.1023
 Frc consts  --      6.3220                 6.3366                 6.3651
 IR Inten    --     60.5982                57.2046                33.1450

                     85                     86                     87
                      A                      A                      A
 Frequencies --   3130.8302              3137.1388              3138.7197
 Red. masses --      1.0973                 1.0974                 1.0930
 Frc consts  --      6.3370                 6.3634                 6.3441
 IR Inten    --     50.8430                43.4042                25.9750

 - Thermochemistry -
 -------------------
 Temperature   298.150 Kelvin.  Pressure   1.00000 Atm.
 Atom     1 has atomic number  6 and mass  12.00000

 Molecular mass:   186.12559 amu.
 Principal axes and moments of inertia in atomic units:
                           1         2         3
     Eigenvalues --   996.425303932.114574050.38801
           X            0.99998   0.00015   0.00548
           Y            0.00031   0.99650  -0.08364
           Z           -0.00547   0.08364   0.99648
 This molecule is an asymmetric top.
 Rotational symmetry number  1.
 Warning -- assumption of classical behavior for rotation
           may cause significant error
 Rotational temperatures (Kelvin)      0.08692     0.02203     0.02138
 Rotational constants (GHZ):           1.81122     0.45897     0.44557
 Zero-point vibrational energy     737693.4 (Joules/Mol)
                                  176.31295 (Kcal/Mol)
 Warning -- explicit consideration of  17 degrees of freedom as
           vibrations may cause significant error
 Vibrational temperatures:     61.99    89.59   150.01   214.47   254.54
          (Kelvin)            308.84   369.31   403.31   493.70   544.95
                              566.43   627.91   637.33   701.32   750.75
                              763.51   849.97  1007.19  1069.65  1184.63
                             1207.91  1216.57  1247.39  1255.69  1293.49
                             1302.84  1311.84  1335.37  1366.23  1427.28
                             1493.33  1497.21  1520.23  1524.24  1539.33
                             1551.43  1588.94  1660.30  1664.10  1676.55
                             1712.99  1742.79  1772.65  1780.34  1793.15
                             1857.63  1872.88  1909.48  1923.22  1957.86
                             1961.33  1971.42  1992.19  1995.46  2005.87
                             2007.08  2021.15  2039.05  2049.94  2062.14
                             2084.76  2121.87  2122.22  2135.14  2136.20
                             2152.15  2158.50  2171.64  2176.20  4333.19
                             4347.57  4385.16  4391.89  4409.76  4415.67
                             4417.64  4431.02  4432.27  4473.90  4483.74
                             4484.38  4489.80  4496.84  4504.34  4504.57
                             4513.64  4515.92

 Zero-point correction=                           0.280973 (Hartree/Particle)
 Thermal correction to Energy=                    0.292601
 Thermal correction to Enthalpy=                  0.293545
 Thermal correction to Gibbs Free Energy=         0.242943
 Sum of electronic and zero-point Energies=           -617.220038
 Sum of electronic and thermal Energies=              -617.208410
 Sum of electronic and thermal Enthalpies=            -617.207466
 Sum of electronic and thermal Free Energies=         -617.258068

                     E (Thermal)             CV                S
                      KCal/Mol        Cal/Mol-Kelvin    Cal/Mol-Kelvin
 Total                  183.610             46.496            106.502
 Electronic               0.000              0.000              0.000
 Translational            0.889              2.981             41.570
 Rotational               0.889              2.981             31.140
 Vibrational            181.832             40.535             33.791
 Vibration     1          0.595              1.980              5.112
 Vibration     2          0.597              1.972              4.384
 Vibration     3          0.605              1.946              3.373
 Vibration     4          0.618              1.904              2.684
 Vibration     5          0.628              1.871              2.361
 Vibration     6          0.645              1.819              2.004
 Vibration     7          0.666              1.751              1.684
 Vibration     8          0.680              1.710              1.532
 Vibration     9          0.722              1.589              1.198
 Vibration    10          0.749              1.515              1.044
 Vibration    11          0.761              1.484              0.986
 Vibration    12          0.797              1.391              0.838
 Vibration    13          0.803              1.376              0.817
 Vibration    14          0.843              1.278              0.690
 Vibration    15          0.877              1.202              0.606
 Vibration    16          0.886              1.182              0.586
 Vibration    17          0.948              1.051              0.466

 Optimization completed.
    -- Stationary point found.
 Normal termination of Gaussian 16 at Mon Nov  5 05:06:02 2018.
