 Gaussian 16, Revision A.03,
 Gaussian 16:  ES64L-G16RevA.03 25-Dec-2016

 ----------------------------------------------------------------------
 #M062X/6-311++G(2d,2p) opt=ModRedundant freq=noraman SCRF=(Solvent=Wat
 er)
 ----------------------------------------------------------------------

 ---------------------------
 D_1a_4a_L_PHI.inp_extract_8
 ---------------------------
 Symbolic Z-matrix:
 Charge =  0 Multiplicity = 1

 SCF Done:  E(RM062X) =  -617.502670693     A.U. after   12 cycles
 SCF Done:  E(RM062X) =  -617.504289847     A.U. after   10 cycles
 SCF Done:  E(RM062X) =  -617.504433116     A.U. after    9 cycles
 SCF Done:  E(RM062X) =  -617.504455571     A.U. after    9 cycles
 SCF Done:  E(RM062X) =  -617.504458492     A.U. after    8 cycles
 SCF Done:  E(RM062X) =  -617.504459889     A.U. after    8 cycles
 SCF Done:  E(RM062X) =  -617.504460264     A.U. after    8 cycles
 Optimization completed.
    -- Stationary point found.
 Normal termination of Gaussian 16 at Mon Nov  5 04:19:03 2018.

 ----------------------------------------------------------------------
 #N Geom=AllCheck Guess=TCheck SCRF=Check GenChk RM062X/6-311++G(2d,2p)
  Freq
 ----------------------------------------------------------------------

 Structure from the checkpoint file:  "D_1a_4a_L_PHI.inp_extract_8.chk"
 ---------------------------
 D_1a_4a_L_PHI.inp_extract_8
 ---------------------------
 Charge =  0 Multiplicity = 1

                         Standard orientation:
 ---------------------------------------------------------------------
 Center     Atomic      Atomic             Coordinates (Angstroms)
 Number     Number       Type             X           Y           Z
 ---------------------------------------------------------------------
      1          6           0        3.398533    0.669600    0.292556
      2          6           0        1.079913   -0.906651   -0.342512
      3          6           0       -1.667620    1.482290   -0.207968
      4          6           0        2.680432   -0.089244    1.407532
      5          6           0       -3.464530   -0.039559    0.607106
      6          8           0       -2.729810   -1.165026    0.144435
      7          6           0        2.421033    0.992493   -0.824972
      8          6           0       -0.964397    0.253159   -0.769885
      9          6           0       -2.537560    1.102912    0.989807
     10          6           0       -1.974883   -0.862067   -1.013697
     11          8           0        1.794802   -0.189828   -1.325764
     12          8           0        0.019517   -0.148283    0.182192
     13          6           0        1.971637   -1.309367    0.820410
     14          1           0        4.207676    0.055925   -0.110836
     15          1           0        3.838807    1.594751    0.665670
     16          1           0       -2.295299    1.906230   -0.995293
     17          1           0        3.383871   -0.399929    2.179245
     18          1           0        1.946737    0.566674    1.879834
     19          1           0        1.653580    1.686397   -0.469537
     20          1           0        2.922077    1.442158   -1.679195
     21          1           0       -1.908926    0.786664    1.823347
     22          1           0       -3.127989    1.956576    1.323095
     23          1           0       -2.643428   -0.556447   -1.828206
     24          1           0       -1.477893   -1.784281   -1.309457
     25          1           0        2.708435   -2.019492    0.440997
     26          1           0        1.366354   -1.821044    1.567643
     27          1           0        0.698619   -1.783262   -0.870763
     28          1           0       -4.157808    0.285323   -0.179389
     29          1           0       -4.047791   -0.384215    1.458382
     30          1           0       -0.924107    2.232143    0.061358
     31          1           0       -0.474330    0.499524   -1.714061
 ---------------------------------------------------------------------

 SCF Done:  E(RM062X) =  -617.504460264     A.U. after    1 cycles

 The electronic state is 1-A.
 Alpha  occ. eigenvalues --  -19.63034 -19.62977 -19.62844 -10.63433 -10.58586
 Alpha  occ. eigenvalues --  -10.58051 -10.57888 -10.57786 -10.53259 -10.53051
 Alpha  occ. eigenvalues --  -10.52970 -10.52892 -10.52868  -1.20098  -1.16420
 Alpha  occ. eigenvalues --   -1.13160  -0.91041  -0.89670  -0.86955  -0.84617
 Alpha  occ. eigenvalues --   -0.74569  -0.74024  -0.72766  -0.71319  -0.66125
 Alpha  occ. eigenvalues --   -0.62729  -0.59445  -0.58552  -0.57905  -0.55722
 Alpha  occ. eigenvalues --   -0.54234  -0.52872  -0.52056  -0.50657  -0.49834
 Alpha  occ. eigenvalues --   -0.48266  -0.46612  -0.46133  -0.45730  -0.45221
 Alpha  occ. eigenvalues --   -0.43748  -0.43128  -0.40859  -0.40015  -0.38743
 Alpha  occ. eigenvalues --   -0.38448  -0.37722  -0.36272  -0.35381  -0.33336
 Alpha  occ. eigenvalues --   -0.31802
 Alpha virt. eigenvalues --   -0.00147   0.00832   0.00889   0.01017   0.02238
 Alpha virt. eigenvalues --    0.02517   0.02729   0.03170   0.03470   0.04586
 Alpha virt. eigenvalues --    0.04824   0.04939   0.05340   0.05818   0.07252

 Mulliken charges:
               1
     1  C   -0.358103
     2  C   -0.089696
     3  C   -0.320174
     4  C   -0.330138
     5  C   -0.204263
     6  O   -0.295868
     7  C   -0.119813
     8  C   -0.074535
     9  C   -0.291562
    10  C   -0.428033
    11  O   -0.295189
    12  O   -0.206006
    13  C   -0.335997
    14  H    0.166065
    15  H    0.172198
    16  H    0.213506
    17  H    0.182174
    18  H    0.175812
    19  H    0.105111
    20  H    0.204710
    21  H    0.166316
    22  H    0.178005
    23  H    0.180129
    24  H    0.200843
    25  H    0.189019
    26  H    0.178947
    27  H    0.246615
    28  H    0.146213
    29  H    0.200076
    30  H    0.156392
    31  H    0.287245
 Sum of Mulliken charges =  -0.00000

 Dipole moment (field-independent basis, Debye):
    X=              0.3188    Y=              2.2640    Z=             -0.2488  Tot=              2.2999
 Quadrupole moment (field-independent basis, Debye-Ang):
   XX=            -74.7000   YY=            -79.0863   ZZ=            -80.9873
   XY=             -4.8241   XZ=              4.3715   YZ=              0.2148

  Exact polarizability: 170.422   0.371 157.168  -0.956  -0.165 155.327
 Approx polarizability: 145.012  -1.039 142.893  -1.450   0.174 143.008

                      1                      2                      3
                      A                      A                      A
 Frequencies --     27.9366                63.5930                81.6519
 Red. masses --      3.7346                 3.7896                 3.5333
 Frc consts  --      0.0017                 0.0090                 0.0139
 IR Inten    --      0.9369                 2.0478                 1.9542

                      4                      5                      6
                      A                      A                      A
 Frequencies --    155.1103               159.6157               244.4203
 Red. masses --      3.6935                 3.1295                 2.7767
 Frc consts  --      0.0524                 0.0470                 0.0977
 IR Inten    --      5.6824                 1.6106                 3.1228

                      7                      8                      9
                      A                      A                      A
 Frequencies --    252.9451               283.4488               347.5934
 Red. masses --      2.6682                 2.3865                 2.1906
 Frc consts  --      0.1006                 0.1130                 0.1559
 IR Inten    --      4.2833                11.1343                 4.0830

                     10                     11                     12
                      A                      A                      A
 Frequencies --    380.8222               404.1470               434.3660
 Red. masses --      2.2263                 2.3411                 3.4553
 Frc consts  --      0.1902                 0.2253                 0.3841
 IR Inten    --      3.9927                 2.6666                11.2804

                     13                     14                     15
                      A                      A                      A
 Frequencies --    440.4837               504.7206               521.9785
 Red. masses --      2.1470                 3.7084                 2.2761
 Frc consts  --      0.2454                 0.5566                 0.3654
 IR Inten    --      2.0785                15.9571                 3.7674

                     16                     17                     18
                      A                      A                      A
 Frequencies --    531.7162               581.5242               675.8058
 Red. masses --      2.3782                 3.1088                 2.6520
 Frc consts  --      0.3961                 0.6194                 0.7136
 IR Inten    --      3.4057                 6.6367                 5.1118

                     19                     20                     21
                      A                      A                      A
 Frequencies --    751.1671               833.0366               838.6862
 Red. masses --      2.5652                 1.5192                 3.7248
 Frc consts  --      0.8528                 0.6211                 1.5437
 IR Inten    --      7.2310                 4.6182                14.1803

                     22                     23                     24
                      A                      A                      A
 Frequencies --    848.2791               868.9288               876.9050
 Red. masses --      3.5266                 1.9865                 1.7135
 Frc consts  --      1.4952                 0.8837                 0.7763
 IR Inten    --      3.3817                12.7514                14.5233

                     25                     26                     27
                      A                      A                      A
 Frequencies --    895.9838               905.9233               909.2752
 Red. masses --      2.5046                 2.6201                 2.4489
 Frc consts  --      1.1846                 1.2669                 1.1929
 IR Inten    --     33.5809                34.9020                22.9175

                     28                     29                     30
                      A                      A                      A
 Frequencies --    928.5928               950.8723              1005.9058
 Red. masses --      1.7940                 1.6488                 1.6908
 Frc consts  --      0.9114                 0.8783                 1.0080
 IR Inten    --     12.7424                12.9166                23.5942

                     31                     32                     33
                      A                      A                      A
 Frequencies --   1034.2176              1043.0881              1054.3849
 Red. masses --      2.1458                 2.2001                 2.4735
 Frc consts  --      1.3523                 1.4104                 1.6202
 IR Inten    --      3.9745                62.0137               169.6091

                     34                     35                     36
                      A                      A                      A
 Frequencies --   1060.0336              1066.6683              1073.9386
 Red. masses --      1.9361                 1.7728                 2.3125
 Frc consts  --      1.2818                 1.1884                 1.5714
 IR Inten    --    101.4080                44.9169                81.5299

                     37                     38                     39
                      A                      A                      A
 Frequencies --   1106.1156              1147.5214              1153.9806
 Red. masses --      1.5564                 2.2659                 2.8805
 Frc consts  --      1.1219                 1.7580                 2.2600
 IR Inten    --     26.8979                88.6115               101.3536

                     40                     41                     42
                      A                      A                      A
 Frequencies --   1170.6030              1181.6910              1213.3267
 Red. masses --      3.5990                 2.4410                 1.4281
 Frc consts  --      2.9057                 2.0083                 1.2387
 IR Inten    --    173.5273                19.3956                14.9221

                     43                     44                     45
                      A                      A                      A
 Frequencies --   1231.8143              1234.8202              1248.2470
 Red. masses --      1.5337                 1.4586                 1.8083
 Frc consts  --      1.3711                 1.3104                 1.6601
 IR Inten    --     62.3017                37.5002                42.8470

                     46                     47                     48
                      A                      A                      A
 Frequencies --   1288.9161              1303.2158              1320.4669
 Red. masses --      1.2144                 1.1285                 1.1492
 Frc consts  --      1.1887                 1.1292                 1.1806
 IR Inten    --     24.4701                 7.7714                 7.5671

                     49                     50                     51
                      A                      A                      A
 Frequencies --   1337.6141              1357.8627              1366.6800
 Red. masses --      1.2191                 1.3474                 1.3144
 Frc consts  --      1.2851                 1.4638                 1.4465
 IR Inten    --     10.0201                21.0908                 1.2910

                     52                     53                     54
                      A                      A                      A
 Frequencies --   1368.9365              1381.4806              1387.3895
 Red. masses --      1.6097                 1.3267                 1.4767
 Frc consts  --      1.7773                 1.4919                 1.6747
 IR Inten    --      9.6692                32.3866                 3.2814

                     55                     56                     57
                      A                      A                      A
 Frequencies --   1391.7746              1394.6323              1404.1120
 Red. masses --      1.7074                 1.4683                 1.3395
 Frc consts  --      1.9486                 1.6826                 1.5559
 IR Inten    --     12.6872                13.3388                 3.4463

                     58                     59                     60
                      A                      A                      A
 Frequencies --   1407.6126              1423.9364              1429.2538
 Red. masses --      1.3923                 1.4943                 1.3639
 Frc consts  --      1.6254                 1.7852                 1.6415
 IR Inten    --      9.3168                 8.1119                13.4317

                     61                     62                     63
                      A                      A                      A
 Frequencies --   1436.9593              1475.3698              1475.4908
 Red. masses --      1.3075                 1.0995                 1.0921
 Frc consts  --      1.5906                 1.4101                 1.4008
 IR Inten    --      7.2644                 8.5677                 2.8762

                     64                     65                     66
                      A                      A                      A
 Frequencies --   1482.4785              1484.5310              1494.0244
 Red. masses --      1.0870                 1.1181                 1.0854
 Frc consts  --      1.4076                 1.4518                 1.4275
 IR Inten    --      7.5506                15.1171                 4.4854

                     67                     68                     69
                      A                      A                      A
 Frequencies --   1495.9140              1509.7683              1510.7979
 Red. masses --      1.1079                 1.0933                 1.1009
 Frc consts  --      1.4606                 1.4683                 1.4805
 IR Inten    --     14.5334                 5.7993                 7.3835

                     70                     71                     72
                      A                      A                      A
 Frequencies --   3012.2904              3021.1626              3051.8082
 Red. masses --      1.0707                 1.0703                 1.0690
 Frc consts  --      5.7241                 5.7557                 5.8661
 IR Inten    --     77.6785                65.5507                49.9425

                     73                     74                     75
                      A                      A                      A
 Frequencies --   3062.6088              3067.7547              3071.1690
 Red. masses --      1.0630                 1.0645                 1.0758
 Frc consts  --      5.8743                 5.9023                 5.9785
 IR Inten    --     42.6284                19.2511                28.1903

                     76                     77                     78
                      A                      A                      A
 Frequencies --   3074.3527              3079.1578              3082.7334
 Red. masses --      1.0637                 1.0606                 1.0709
 Frc consts  --      5.9237                 5.9247                 5.9961
 IR Inten    --     25.6825                25.8535                72.1849

                     79                     80                     81
                      A                      A                      A
 Frequencies --   3086.7394              3113.5097              3116.1839
 Red. masses --      1.0831                 1.0978                 1.1003
 Frc consts  --      6.0803                 6.2702                 6.2953
 IR Inten    --     51.5310                37.0145                35.9873

                     82                     83                     84
                      A                      A                      A
 Frequencies --   3119.5184              3124.8721              3129.0897
 Red. masses --      1.1025                 1.1025                 1.0934
 Frc consts  --      6.3212                 6.3429                 6.3073
 IR Inten    --     60.4604                64.0222                38.4234

                     85                     86                     87
                      A                      A                      A
 Frequencies --   3130.9111              3131.8128              3134.7504
 Red. masses --      1.1035                 1.0956                 1.0981
 Frc consts  --      6.3733                 6.3315                 6.3575
 IR Inten    --     45.5160                42.3736                45.6153

 - Thermochemistry -
 -------------------
 Temperature   298.150 Kelvin.  Pressure   1.00000 Atm.
 Atom     1 has atomic number  6 and mass  12.00000

 Molecular mass:   186.12559 amu.
 Principal axes and moments of inertia in atomic units:
                           1         2         3
     Eigenvalues --  1056.625793966.318024029.16711
           X            0.99994  -0.00713   0.00859
           Y            0.00714   0.99997  -0.00042
           Z           -0.00859   0.00048   0.99996
 This molecule is an asymmetric top.
 Rotational symmetry number  1.
 Warning -- assumption of classical behavior for rotation
           may cause significant error
 Rotational temperatures (Kelvin)      0.08197     0.02184     0.02150
 Rotational constants (GHZ):           1.70802     0.45502     0.44792
 Zero-point vibrational energy     737291.6 (Joules/Mol)
                                  176.21692 (Kcal/Mol)
 Warning -- explicit consideration of  17 degrees of freedom as
           vibrations may cause significant error
 Vibrational temperatures:     40.19    91.50   117.48   223.17   229.65
          (Kelvin)            351.67   363.93   407.82   500.11   547.92
                              581.48   624.96   633.76   726.18   751.01
                              765.02   836.68   972.33  1080.76  1198.55
                             1206.68  1220.48  1250.19  1261.67  1289.12
                             1303.42  1308.24  1336.04  1368.09  1447.27
                             1488.01  1500.77  1517.02  1525.15  1534.70
                             1545.16  1591.45  1651.03  1660.32  1684.24
                             1700.19  1745.71  1772.31  1776.63  1795.95
                             1854.46  1875.04  1899.86  1924.53  1953.66
                             1966.35  1969.59  1987.64  1996.14  2002.45
                             2006.56  2020.20  2025.24  2048.73  2056.38
                             2067.46  2122.73  2122.90  2132.96  2135.91
                             2149.57  2152.29  2172.22  2173.70  4334.01
                             4346.78  4390.87  4406.41  4413.81  4418.73
                             4423.31  4430.22  4435.37  4441.13  4479.65
                             4483.49  4488.29  4495.99  4502.06  4504.68
                             4505.98  4510.21

 Zero-point correction=                           0.280820 (Hartree/Particle)
 Thermal correction to Energy=                    0.292481
 Thermal correction to Enthalpy=                  0.293425
 Thermal correction to Gibbs Free Energy=         0.242262
 Sum of electronic and zero-point Energies=           -617.223641
 Sum of electronic and thermal Energies=              -617.211980
 Sum of electronic and thermal Enthalpies=            -617.211035
 Sum of electronic and thermal Free Energies=         -617.262199

                     E (Thermal)             CV                S
                      KCal/Mol        Cal/Mol-Kelvin    Cal/Mol-Kelvin
 Total                  183.534             46.466            107.682
 Electronic               0.000              0.000              0.000
 Translational            0.889              2.981             41.570
 Rotational               0.889              2.981             31.202
 Vibrational            181.757             40.504             34.910
 Vibration     1          0.593              1.984              5.971
 Vibration     2          0.597              1.972              4.342
 Vibration     3          0.600              1.962              3.851
 Vibration     4          0.620              1.897              2.609
 Vibration     5          0.621              1.892              2.554
 Vibration     6          0.660              1.772              1.770
 Vibration     7          0.664              1.758              1.710
 Vibration     8          0.682              1.704              1.513
 Vibration     9          0.725              1.580              1.177
 Vibration    10          0.751              1.511              1.036
 Vibration    11          0.769              1.461              0.948
 Vibration    12          0.795              1.395              0.845
 Vibration    13          0.800              1.382              0.825
 Vibration    14          0.860              1.240              0.646
 Vibration    15          0.877              1.201              0.605
 Vibration    16          0.887              1.180              0.583
 Vibration    17          0.938              1.071              0.483

 Optimization completed.
    -- Stationary point found.
 Normal termination of Gaussian 16 at Mon Nov  5 05:18:14 2018.
