 Gaussian 16, Revision A.03,
 Gaussian 16:  ES64L-G16RevA.03 25-Dec-2016

 ----------------------------------------------------------------------
 #M062X/6-311++G(2d,2p) opt=ModRedundant freq=noraman SCRF=(Solvent=Wat
 er)
 ----------------------------------------------------------------------

 ---------------------------
 D_1a_4a_L_PHI.inp_extract_5
 ---------------------------
 Symbolic Z-matrix:
 Charge =  0 Multiplicity = 1

 SCF Done:  E(RM062X) =  -617.493990598     A.U. after   13 cycles
 SCF Done:  E(RM062X) =  -617.495146955     A.U. after   10 cycles
 SCF Done:  E(RM062X) =  -617.495571900     A.U. after   11 cycles
 SCF Done:  E(RM062X) =  -617.495932995     A.U. after   10 cycles
 SCF Done:  E(RM062X) =  -617.495974222     A.U. after   10 cycles
 SCF Done:  E(RM062X) =  -617.495980024     A.U. after    8 cycles
 SCF Done:  E(RM062X) =  -617.495980777     A.U. after    8 cycles
 Optimization completed.
    -- Stationary point found.
 Normal termination of Gaussian 16 at Mon Nov  5 04:06:40 2018.

 ----------------------------------------------------------------------
 #N Geom=AllCheck Guess=TCheck SCRF=Check GenChk RM062X/6-311++G(2d,2p)
  Freq
 ----------------------------------------------------------------------

 Structure from the checkpoint file:  "D_1a_4a_L_PHI.inp_extract_5.chk"
 ---------------------------
 D_1a_4a_L_PHI.inp_extract_5
 ---------------------------
 Charge =  0 Multiplicity = 1

                         Standard orientation:
 ---------------------------------------------------------------------
 Center     Atomic      Atomic             Coordinates (Angstroms)
 Number     Number       Type             X           Y           Z
 ---------------------------------------------------------------------
      1          6           0       -3.470040   -0.085604    0.588672
      2          6           0       -1.034165   -0.141891   -0.952857
      3          6           0        1.772348    0.869374    1.252957
      4          6           0       -2.922290    1.219045    0.019203
      5          6           0        3.547044    0.023709   -0.279881
      6          8           0        2.611914   -0.858805   -0.884784
      7          6           0       -2.311352   -1.012836    0.900700
      8          6           0        0.832701   -0.161172    0.638853
      9          6           0        2.861586    1.269403    0.258702
     10          6           0        1.639837   -1.310351    0.040720
     11          8           0       -1.475970   -1.264705   -0.236753
     12          8           0        0.081721    0.515286   -0.360671
     13          6           0       -2.112196    0.892774   -1.229326
     14          1           0       -4.136711   -0.557571   -0.136741
     15          1           0       -4.038220    0.082284    1.503740
     16          1           0        2.232554    0.421970    2.137232
     17          1           0       -3.726146    1.912436   -0.223844
     18          1           0       -2.284921    1.704191    0.762801
     19          1           0       -1.719566   -0.577547    1.710404
     20          1           0       -2.653294   -1.994086    1.221905
     21          1           0        2.423814    1.822355   -0.573218
     22          1           0        3.600163    1.914260    0.735567
     23          1           0        2.126630   -1.861756    0.855308
     24          1           0        0.986073   -1.992804   -0.498063
     25          1           0       -2.775477    0.481785   -1.993153
     26          1           0       -1.629958    1.774469   -1.648881
     27          1           0       -0.687004   -0.568349   -1.898079
     28          1           0        4.063522   -0.502653    0.533366
     29          1           0        4.277676    0.269846   -1.047692
     30          1           0        1.196463    1.733891    1.582416
     31          1           0        0.182245   -0.571633    1.408136
 ---------------------------------------------------------------------

 SCF Done:  E(RM062X) =  -617.495980777     A.U. after    1 cycles

 The electronic state is 1-A.
 Alpha  occ. eigenvalues --  -19.63740 -19.62688 -19.62487 -10.63644 -10.58526
 Alpha  occ. eigenvalues --  -10.58278 -10.57788 -10.57628 -10.53188 -10.53149
 Alpha  occ. eigenvalues --  -10.53136 -10.53107 -10.52783  -1.19740  -1.16253
 Alpha  occ. eigenvalues --   -1.13085  -0.91146  -0.90041  -0.87071  -0.84530
 Alpha  occ. eigenvalues --   -0.74685  -0.74157  -0.73258  -0.71100  -0.65772
 Alpha  occ. eigenvalues --   -0.62885  -0.59650  -0.58327  -0.57789  -0.55276
 Alpha  occ. eigenvalues --   -0.53960  -0.53003  -0.52773  -0.50623  -0.49970
 Alpha  occ. eigenvalues --   -0.47991  -0.47041  -0.46520  -0.45503  -0.45323
 Alpha  occ. eigenvalues --   -0.43520  -0.43089  -0.40586  -0.39787  -0.39469
 Alpha  occ. eigenvalues --   -0.38566  -0.37846  -0.35940  -0.34861  -0.33833
 Alpha  occ. eigenvalues --   -0.31151
 Alpha virt. eigenvalues --   -0.00205   0.00811   0.00902   0.01061   0.02215
 Alpha virt. eigenvalues --    0.02476   0.02700   0.03298   0.03449   0.04530
 Alpha virt. eigenvalues --    0.04672   0.04900   0.05520   0.05964   0.07021

 Mulliken charges:
               1
     1  C   -0.389071
     2  C   -0.113517
     3  C   -0.547858
     4  C   -0.274181
     5  C   -0.194354
     6  O   -0.284305
     7  C   -0.117339
     8  C   -0.038360
     9  C   -0.247784
    10  C   -0.298066
    11  O   -0.231036
    12  O   -0.238592
    13  C   -0.356561
    14  H    0.167772
    15  H    0.181091
    16  H    0.217681
    17  H    0.191701
    18  H    0.158496
    19  H    0.135373
    20  H    0.198306
    21  H    0.167130
    22  H    0.178916
    23  H    0.187870
    24  H    0.221541
    25  H    0.195760
    26  H    0.179938
    27  H    0.230974
    28  H    0.136097
    29  H    0.202538
    30  H    0.166586
    31  H    0.213255
 Sum of Mulliken charges =  -0.00000

 Dipole moment (field-independent basis, Debye):
    X=             -1.6595    Y=              1.0636    Z=              3.0403  Tot=              3.6233
 Quadrupole moment (field-independent basis, Debye-Ang):
   XX=            -71.5009   YY=            -82.6227   ZZ=            -78.7848
   XY=              1.6945   XZ=              4.0863   YZ=             -3.1772

  Exact polarizability: 172.291   2.606 156.028  -0.883  -2.417 156.044
 Approx polarizability: 145.274   2.751 141.893   0.245  -1.475 144.710

 ******    1 imaginary frequencies (negative Signs) ******

                      1                      2                      3
                      A                      A                      A
 Frequencies --    -32.0074                42.0440                93.1642
 Red. masses --      3.7346                 4.1521                 3.2051
 Frc consts  --      0.0023                 0.0043                 0.0164
 IR Inten    --      5.0053                 1.1703                 1.1742

                      4                      5                      6
                      A                      A                      A
 Frequencies --    139.4957               181.5373               195.8469
 Red. masses --      3.2397                 3.1316                 3.8308
 Frc consts  --      0.0371                 0.0608                 0.0866
 IR Inten    --      2.9412                 1.3530                 4.9224

                      7                      8                      9
                      A                      A                      A
 Frequencies --    244.5576               276.9948               337.0708
 Red. masses --      2.8083                 2.4131                 2.0840
 Frc consts  --      0.0990                 0.1091                 0.1395
 IR Inten    --      8.7669                11.1590                 3.7731

                     10                     11                     12
                      A                      A                      A
 Frequencies --    375.7165               392.3295               433.2832
 Red. masses --      2.2987                 2.0397                 2.7083
 Frc consts  --      0.1912                 0.1850                 0.2996
 IR Inten    --      2.6301                 3.6749                 2.9229

                     13                     14                     15
                      A                      A                      A
 Frequencies --    438.5444               480.7107               519.8110
 Red. masses --      2.7149                 4.0388                 2.7558
 Frc consts  --      0.3076                 0.5499                 0.4387
 IR Inten    --      6.8555                 7.3668                 2.4225

                     16                     17                     18
                      A                      A                      A
 Frequencies --    525.9999               586.0358               698.9138
 Red. masses --      2.0254                 2.6254                 3.0433
 Frc consts  --      0.3302                 0.5312                 0.8759
 IR Inten    --      0.9671                 8.3944                 3.4334

                     19                     20                     21
                      A                      A                      A
 Frequencies --    738.5547               814.4582               840.9507
 Red. masses --      2.6967                 2.2352                 2.0962
 Frc consts  --      0.8667                 0.8736                 0.8734
 IR Inten    --     13.6474                 2.3750                 4.0272

                     22                     23                     24
                      A                      A                      A
 Frequencies --    846.3205               864.5167               873.0535
 Red. masses --      3.5797                 2.4030                 1.6211
 Frc consts  --      1.5106                 1.0582                 0.7280
 IR Inten    --     16.0855                13.4311                16.3396

                     25                     26                     27
                      A                      A                      A
 Frequencies --    901.8438               904.6001               907.5337
 Red. masses --      2.3381                 2.5996                 2.5546
 Frc consts  --      1.1204                 1.2534                 1.2396
 IR Inten    --     10.3523                 3.5107                71.4172

                     28                     29                     30
                      A                      A                      A
 Frequencies --    927.8522               948.1909               986.0561
 Red. masses --      1.7682                 1.6738                 1.8236
 Frc consts  --      0.8969                 0.8866                 1.0447
 IR Inten    --      7.1610                19.7974                23.0631

                     31                     32                     33
                      A                      A                      A
 Frequencies --   1037.0404              1041.3260              1056.4968
 Red. masses --      2.1222                 2.3547                 1.8587
 Frc consts  --      1.3447                 1.5044                 1.2223
 IR Inten    --     10.6594                38.1563                13.2831

                     34                     35                     36
                      A                      A                      A
 Frequencies --   1060.3894              1071.3874              1080.7798
 Red. masses --      1.9649                 1.7615                 2.3408
 Frc consts  --      1.3017                 1.1913                 1.6110
 IR Inten    --    216.2125                51.9416                78.6131

                     37                     38                     39
                      A                      A                      A
 Frequencies --   1102.9368              1153.1399              1154.2616
 Red. masses --      1.5394                 2.6229                 2.3882
 Frc consts  --      1.1034                 2.0549                 1.8747
 IR Inten    --     19.8557                74.7723               131.7032

                     40                     41                     42
                      A                      A                      A
 Frequencies --   1160.3389              1193.3407              1209.1751
 Red. masses --      2.6054                 2.7915                 1.3767
 Frc consts  --      2.0668                 2.3422                 1.1859
 IR Inten    --     48.5527               147.2881                 5.0067

                     43                     44                     45
                      A                      A                      A
 Frequencies --   1229.0559              1240.6648              1244.8833
 Red. masses --      1.3976                 1.8195                 1.8214
 Frc consts  --      1.2439                 1.6501                 1.6631
 IR Inten    --     16.9904               147.3631                38.2227

                     46                     47                     48
                      A                      A                      A
 Frequencies --   1292.7051              1300.9522              1327.4626
 Red. masses --      1.2260                 1.1364                 1.1582
 Frc consts  --      1.2071                 1.1332                 1.2025
 IR Inten    --     27.2292                39.6243                13.1052

                     49                     50                     51
                      A                      A                      A
 Frequencies --   1336.0719              1359.2003              1360.4568
 Red. masses --      1.2428                 1.4791                 1.4029
 Frc consts  --      1.3071                 1.6100                 1.5298
 IR Inten    --     17.1331                 1.5162                 5.3699

                     52                     53                     54
                      A                      A                      A
 Frequencies --   1367.5588              1383.3605              1386.9383
 Red. masses --      1.4850                 1.4239                 1.4845
 Frc consts  --      1.6363                 1.6055                 1.6825
 IR Inten    --      3.3002                14.5663                 0.6074

                     55                     56                     57
                      A                      A                      A
 Frequencies --   1395.4334              1397.0167              1403.7411
 Red. masses --      1.6037                 1.3632                 1.4652
 Frc consts  --      1.8399                 1.5675                 1.7011
 IR Inten    --     39.1054                 1.8668                 1.2541

                     58                     59                     60
                      A                      A                      A
 Frequencies --   1415.7286              1424.6730              1433.8795
 Red. masses --      1.3606                 1.3606                 1.2436
 Frc consts  --      1.6068                 1.6271                 1.5064
 IR Inten    --      3.2840                 6.5856                 1.3165

                     61                     62                     63
                      A                      A                      A
 Frequencies --   1451.4576              1474.4567              1475.1396
 Red. masses --      1.3196                 1.0868                 1.1016
 Frc consts  --      1.6379                 1.3921                 1.4123
 IR Inten    --     16.2405                 5.7316                 5.4851

                     64                     65                     66
                      A                      A                      A
 Frequencies --   1483.9409              1485.2810              1496.4697
 Red. masses --      1.1160                 1.0888                 1.1104
 Frc consts  --      1.4479                 1.4152                 1.4651
 IR Inten    --     13.5471                11.6490                18.7957

                     67                     68                     69
                      A                      A                      A
 Frequencies --   1497.2907              1511.4257              1514.8747
 Red. masses --      1.0891                 1.1008                 1.0957
 Frc consts  --      1.4385                 1.4816                 1.4814
 IR Inten    --      0.8219                 8.7561                 2.9604

                     70                     71                     72
                      A                      A                      A
 Frequencies --   3010.8442              3017.2646              3047.6254
 Red. masses --      1.0707                 1.0705                 1.0831
 Frc consts  --      5.7189                 5.7418                 5.9270
 IR Inten    --     76.2186                79.1527                92.9639

                     73                     74                     75
                      A                      A                      A
 Frequencies --   3054.0939              3061.8719              3066.7287
 Red. masses --      1.0697                 1.0675                 1.0642
 Frc consts  --      5.8784                 5.8962                 5.8968
 IR Inten    --     26.9985                12.7298                32.4211

                     76                     77                     78
                      A                      A                      A
 Frequencies --   3068.2532              3078.3189              3079.4560
 Red. masses --      1.0614                 1.0648                 1.0604
 Frc consts  --      5.8875                 5.9451                 5.9247
 IR Inten    --     41.8070                58.7303                27.5591

                     79                     80                     81
                      A                      A                      A
 Frequencies --   3116.9534              3118.1011              3120.8682
 Red. masses --      1.0993                 1.0975                 1.1008
 Frc consts  --      6.2928                 6.2870                 6.3169
 IR Inten    --     35.2556                35.1873                62.1800

                     82                     83                     84
                      A                      A                      A
 Frequencies --   3124.2151              3129.3497              3130.6528
 Red. masses --      1.1003                 1.0977                 1.0869
 Frc consts  --      6.3276                 6.3337                 6.2766
 IR Inten    --     60.7683                58.4690                43.1998

                     85                     86                     87
                      A                      A                      A
 Frequencies --   3131.2348              3138.2353              3141.0047
 Red. masses --      1.0994                 1.0961                 1.0930
 Frc consts  --      6.3506                 6.3599                 6.3532
 IR Inten    --     53.1419                41.6028                14.7948

 - Thermochemistry -
 -------------------
 Temperature   298.150 Kelvin.  Pressure   1.00000 Atm.
 Atom     1 has atomic number  6 and mass  12.00000

 Molecular mass:   186.12559 amu.
 Principal axes and moments of inertia in atomic units:
                           1         2         3
     Eigenvalues --   993.790483938.294884119.51159
           X            0.99999   0.00120   0.00453
           Y           -0.00093   0.99825  -0.05908
           Z           -0.00459   0.05907   0.99824
 This molecule is an asymmetric top.
 Rotational symmetry number  1.
 Warning -- assumption of classical behavior for rotation
           may cause significant error
 Rotational temperatures (Kelvin)      0.08716     0.02199     0.02103
 Rotational constants (GHZ):           1.81602     0.45825     0.43810
    1 imaginary frequencies ignored.
 Zero-point vibrational energy     736671.1 (Joules/Mol)
                                  176.06862 (Kcal/Mol)
 Warning -- explicit consideration of  16 degrees of freedom as
           vibrations may cause significant error
 Vibrational temperatures:     60.49   134.04   200.70   261.19   281.78
          (Kelvin)            351.86   398.53   484.97   540.57   564.47
                              623.40   630.97   691.64   747.89   756.80
                              843.17  1005.58  1062.62  1171.82  1209.94
                             1217.67  1243.85  1256.13  1297.55  1301.52
                             1305.74  1334.97  1364.24  1418.71  1492.07
                             1498.24  1520.06  1525.66  1541.49  1555.00
                             1586.88  1659.11  1660.72  1669.47  1716.95
                             1739.73  1768.34  1785.04  1791.11  1859.91
                             1871.78  1909.92  1922.31  1955.59  1957.39
                             1967.61  1990.35  1995.49  2007.72  2010.00
                             2019.67  2036.92  2049.79  2063.03  2088.32
                             2121.41  2122.40  2135.06  2136.99  2153.09
                             2154.27  2174.60  2179.57  4331.93  4341.17
                             4384.85  4394.16  4405.35  4412.34  4414.53
                             4429.01  4430.65  4484.60  4486.25  4490.23
                             4495.05  4502.44  4504.31  4505.15  4515.22
                             4519.21

 Zero-point correction=                           0.280583 (Hartree/Particle)
 Thermal correction to Energy=                    0.291522
 Thermal correction to Enthalpy=                  0.292466
 Thermal correction to Gibbs Free Energy=         0.243584
 Sum of electronic and zero-point Energies=           -617.215398
 Sum of electronic and thermal Energies=              -617.204459
 Sum of electronic and thermal Enthalpies=            -617.203514
 Sum of electronic and thermal Free Energies=         -617.252397

                     E (Thermal)             CV                S
                      KCal/Mol        Cal/Mol-Kelvin    Cal/Mol-Kelvin
 Total                  182.933             44.709            102.883
 Electronic               0.000              0.000              0.000
 Translational            0.889              2.981             41.570
 Rotational               0.889              2.981             31.156
 Vibrational            181.156             38.747             30.157
 Vibration     1          0.595              1.980              5.160
 Vibration     2          0.602              1.954              3.593
 Vibration     3          0.615              1.914              2.811
 Vibration     4          0.630              1.865              2.313
 Vibration     5          0.636              1.846              2.172
 Vibration     6          0.660              1.772              1.769
 Vibration     7          0.678              1.716              1.552
 Vibration     8          0.718              1.601              1.226
 Vibration     9          0.747              1.522              1.056
 Vibration    10          0.760              1.487              0.991
 Vibration    11          0.794              1.398              0.848
 Vibration    12          0.799              1.386              0.831
 Vibration    13          0.837              1.293              0.708
 Vibration    14          0.875              1.206              0.610
 Vibration    15          0.881              1.192              0.596
 Vibration    16          0.943              1.062              0.474

 Optimization completed.
    -- Stationary point found.
 Normal termination of Gaussian 16 at Mon Nov  5 05:09:56 2018.
