 Gaussian 16, Revision A.03,
 Gaussian 16:  ES64L-G16RevA.03 25-Dec-2016

 ----------------------------------------------------------------------
 #M062X/6-311++G(2d,2p) opt=ModRedundant freq=noraman SCRF=(Solvent=Wat
 er)
 ----------------------------------------------------------------------

 ---------------------------
 D_1a_4a_L_PHI.inp_extract_7
 ---------------------------
 Symbolic Z-matrix:
 Charge =  0 Multiplicity = 1

 SCF Done:  E(RM062X) =  -617.501808328     A.U. after   12 cycles
 SCF Done:  E(RM062X) =  -617.503564944     A.U. after   10 cycles
 SCF Done:  E(RM062X) =  -617.503802089     A.U. after   10 cycles
 SCF Done:  E(RM062X) =  -617.503888044     A.U. after   10 cycles
 SCF Done:  E(RM062X) =  -617.504021058     A.U. after   11 cycles
 SCF Done:  E(RM062X) =  -617.504072902     A.U. after    9 cycles
 SCF Done:  E(RM062X) =  -617.504095441     A.U. after   10 cycles
 SCF Done:  E(RM062X) =  -617.504096611     A.U. after    8 cycles
 SCF Done:  E(RM062X) =  -617.504097172     A.U. after    8 cycles
 SCF Done:  E(RM062X) =  -617.504097187     A.U. after    7 cycles
 Optimization completed.
    -- Stationary point found.
 Normal termination of Gaussian 16 at Mon Nov  5 04:33:52 2018.

 ----------------------------------------------------------------------
 #N Geom=AllCheck Guess=TCheck SCRF=Check GenChk RM062X/6-311++G(2d,2p)
  Freq
 ----------------------------------------------------------------------

 Structure from the checkpoint file:  "D_1a_4a_L_PHI.inp_extract_7.chk"
 ---------------------------
 D_1a_4a_L_PHI.inp_extract_7
 ---------------------------
 Charge =  0 Multiplicity = 1

                         Standard orientation:
 ---------------------------------------------------------------------
 Center     Atomic      Atomic             Coordinates (Angstroms)
 Number     Number       Type             X           Y           Z
 ---------------------------------------------------------------------
      1          6           0       -3.483079    0.014199    0.486859
      2          6           0       -0.931737   -0.161104   -0.826551
      3          6           0        1.870533    0.545235    1.449941
      4          6           0       -2.874661    1.273948   -0.125709
      5          6           0        3.441003    0.198127   -0.462709
      6          8           0        2.465190   -0.599613   -1.122875
      7          6           0       -2.373181   -0.938009    0.896515
      8          6           0        0.894487   -0.374497    0.727748
      9          6           0        2.793813    1.233171    0.444487
     10          6           0        1.664955   -1.309881   -0.197126
     11          8           0       -1.532763   -1.275661   -0.209845
     12          8           0       -0.008950    0.475719    0.025476
     13          6           0       -1.945564    0.879264   -1.271338
     14          1           0       -4.128473   -0.480813   -0.242736
     15          1           0       -4.090848    0.252654    1.360109
     16          1           0        2.461409   -0.058555    2.142321
     17          1           0       -3.652315    1.945562   -0.487543
     18          1           0       -2.308194    1.811164    0.637530
     19          1           0       -1.770000   -0.484407    1.689086
     20          1           0       -2.766069   -1.883795    1.262611
     21          1           0        2.221275    1.932563   -0.165415
     22          1           0        3.570589    1.798986    0.959417
     23          1           0        2.293603   -1.958340    0.425608
     24          1           0        0.995492   -1.944595   -0.773126
     25          1           0       -2.527334    0.442384   -2.085062
     26          1           0       -1.408464    1.738967   -1.670376
     27          1           0       -0.408255   -0.577455   -1.689954
     28          1           0        4.099179   -0.456257    0.123040
     29          1           0        4.032352    0.668574   -1.245416
     30          1           0        1.314854    1.274136    2.039515
     31          1           0        0.343959   -0.987057    1.445635
 ---------------------------------------------------------------------

 SCF Done:  E(RM062X) =  -617.504097187     A.U. after    1 cycles

 The electronic state is 1-A.
 Alpha  occ. eigenvalues --  -19.63243 -19.62988 -19.62903 -10.63386 -10.58649
 Alpha  occ. eigenvalues --  -10.57971 -10.57959 -10.57899 -10.53218 -10.53087
 Alpha  occ. eigenvalues --  -10.53004 -10.52934 -10.52854  -1.20154  -1.16421
 Alpha  occ. eigenvalues --   -1.13153  -0.91108  -0.89784  -0.86899  -0.84724
 Alpha  occ. eigenvalues --   -0.74825  -0.74119  -0.72936  -0.71001  -0.65910
 Alpha  occ. eigenvalues --   -0.62813  -0.59830  -0.58732  -0.57766  -0.55372
 Alpha  occ. eigenvalues --   -0.54269  -0.52788  -0.52511  -0.50065  -0.49987
 Alpha  occ. eigenvalues --   -0.48294  -0.46985  -0.45967  -0.45675  -0.45554
 Alpha  occ. eigenvalues --   -0.43662  -0.43293  -0.40422  -0.39947  -0.39293
 Alpha  occ. eigenvalues --   -0.38304  -0.37864  -0.36199  -0.35074  -0.33565
 Alpha  occ. eigenvalues --   -0.31861
 Alpha virt. eigenvalues --   -0.00171   0.00840   0.00904   0.01003   0.02222
 Alpha virt. eigenvalues --    0.02472   0.02726   0.03266   0.03477   0.04562
 Alpha virt. eigenvalues --    0.04690   0.04885   0.05517   0.05854   0.07122

 Mulliken charges:
               1
     1  C   -0.401791
     2  C   -0.033767
     3  C   -0.475075
     4  C   -0.288429
     5  C   -0.175182
     6  O   -0.282070
     7  C   -0.103721
     8  C    0.039415
     9  C   -0.301856
    10  C   -0.405919
    11  O   -0.263449
    12  O   -0.246901
    13  C   -0.447201
    14  H    0.166060
    15  H    0.175758
    16  H    0.214068
    17  H    0.184436
    18  H    0.168761
    19  H    0.130934
    20  H    0.205185
    21  H    0.168121
    22  H    0.177013
    23  H    0.190029
    24  H    0.234777
    25  H    0.197376
    26  H    0.181755
    27  H    0.248095
    28  H    0.148680
    29  H    0.200563
    30  H    0.166333
    31  H    0.228000
 Sum of Mulliken charges =  -0.00000

 Dipole moment (field-independent basis, Debye):
    X=             -0.4799    Y=              0.6624    Z=              2.5048  Tot=              2.6350
 Quadrupole moment (field-independent basis, Debye-Ang):
   XX=            -71.2065   YY=            -81.8232   ZZ=            -79.6305
   XY=             -0.0777   XZ=              3.9128   YZ=             -3.2515

  Exact polarizability: 171.728   2.100 155.782  -0.999  -2.614 155.906
 Approx polarizability: 145.026   2.049 142.660   0.376  -1.271 143.763

                      1                      2                      3
                      A                      A                      A
 Frequencies --     40.9733                68.0621               108.9752
 Red. masses --      3.9594                 3.7684                 3.4535
 Frc consts  --      0.0039                 0.0103                 0.0242
 IR Inten    --      0.2164                 3.3291                 1.5481

                      4                      5                      6
                      A                      A                      A
 Frequencies --    139.1177               183.1140               225.0745
 Red. masses --      3.7086                 2.9544                 3.3989
 Frc consts  --      0.0423                 0.0584                 0.1014
 IR Inten    --      1.1266                 5.8796                 8.4344

                      7                      8                      9
                      A                      A                      A
 Frequencies --    264.0002               282.3258               348.1937
 Red. masses --      2.6243                 2.2788                 2.2721
 Frc consts  --      0.1078                 0.1070                 0.1623
 IR Inten    --      3.9652                 9.6355                 6.4301

                     10                     11                     12
                      A                      A                      A
 Frequencies --    375.5427               396.5664               436.9275
 Red. masses --      2.2848                 2.1670                 3.6938
 Frc consts  --      0.1899                 0.2008                 0.4155
 IR Inten    --      4.5969                 1.5322                 7.3968

                     13                     14                     15
                      A                      A                      A
 Frequencies --    449.9389               493.1081               522.5481
 Red. masses --      2.1256                 4.3097                 2.5455
 Frc consts  --      0.2535                 0.6174                 0.4095
 IR Inten    --      3.6735                10.4366                 3.4787

                     16                     17                     18
                      A                      A                      A
 Frequencies --    535.6862               594.6922               700.7321
 Red. masses --      1.8563                 2.7211                 3.1276
 Frc consts  --      0.3139                 0.5670                 0.9048
 IR Inten    --      1.9845                 5.7907                 3.9903

                     19                     20                     21
                      A                      A                      A
 Frequencies --    747.9134               827.9116               838.4219
 Red. masses --      2.6327                 1.6853                 3.5204
 Frc consts  --      0.8677                 0.6806                 1.4580
 IR Inten    --     12.9049                 3.4782                12.3433

                     22                     23                     24
                      A                      A                      A
 Frequencies --    840.7385               867.3174               875.2626
 Red. masses --      3.0276                 2.2495                 1.6238
 Frc consts  --      1.2609                 0.9970                 0.7329
 IR Inten    --      3.8547                12.0105                15.0623

                     25                     26                     27
                      A                      A                      A
 Frequencies --    897.2093               905.2889               916.5466
 Red. masses --      2.4554                 2.6260                 2.5228
 Frc consts  --      1.1646                 1.2680                 1.2487
 IR Inten    --     24.0367                23.1130                39.0955

                     28                     29                     30
                      A                      A                      A
 Frequencies --    926.9294               948.8002               998.5447
 Red. masses --      1.7399                 1.7075                 1.7896
 Frc consts  --      0.8808                 0.9056                 1.0513
 IR Inten    --      6.3555                27.1855                19.5178

                     31                     32                     33
                      A                      A                      A
 Frequencies --   1038.4024              1041.0187              1057.3148
 Red. masses --      2.2879                 2.2271                 1.9293
 Frc consts  --      1.4535                 1.4220                 1.2708
 IR Inten    --     20.0518                34.1272                78.0440

                     34                     35                     36
                      A                      A                      A
 Frequencies --   1058.0338              1068.1339              1077.8959
 Red. masses --      2.0824                 1.6585                 2.3516
 Frc consts  --      1.3735                 1.1148                 1.6098
 IR Inten    --    156.9381                29.6544                82.3759

                     37                     38                     39
                      A                      A                      A
 Frequencies --   1102.6872              1151.6296              1154.8996
 Red. masses --      1.5159                 2.8727                 2.3665
 Frc consts  --      1.0860                 2.2447                 1.8597
 IR Inten    --     18.5926                10.8245               148.0102

                     40                     41                     42
                      A                      A                      A
 Frequencies --   1171.4064              1188.8268              1212.1219
 Red. masses --      2.6366                 3.0933                 1.4082
 Frc consts  --      2.1316                 2.5758                 1.2190
 IR Inten    --     90.3556               143.6890                11.5500

                     43                     44                     45
                      A                      A                      A
 Frequencies --   1233.3899              1234.8574              1246.8029
 Red. masses --      1.4188                 1.6442                 1.7325
 Frc consts  --      1.2717                 1.4772                 1.5868
 IR Inten    --     71.5134                54.9833                39.2960

                     46                     47                     48
                      A                      A                      A
 Frequencies --   1289.6272              1299.2502              1323.6267
 Red. masses --      1.2176                 1.1375                 1.1527
 Frc consts  --      1.1931                 1.1313                 1.1899
 IR Inten    --     19.6717                36.1494                10.5046

                     49                     50                     51
                      A                      A                      A
 Frequencies --   1335.9766              1358.1594              1363.1470
 Red. masses --      1.2361                 1.3681                 1.3395
 Frc consts  --      1.2998                 1.4869                 1.4665
 IR Inten    --     14.8815                18.9890                 1.6088

                     52                     53                     54
                      A                      A                      A
 Frequencies --   1369.7270              1382.4017              1387.2991
 Red. masses --      1.5380                 1.2773                 1.4774
 Frc consts  --      1.7001                 1.4382                 1.6753
 IR Inten    --     10.2121                15.2016                 2.8427

                     55                     56                     57
                      A                      A                      A
 Frequencies --   1392.5345              1395.9004              1403.4793
 Red. masses --      1.5101                 1.7829                 1.4428
 Frc consts  --      1.7253                 2.0469                 1.6744
 IR Inten    --      8.9596                17.3653                 1.1273

                     58                     59                     60
                      A                      A                      A
 Frequencies --   1414.5616              1418.2503              1429.3626
 Red. masses --      1.3103                 1.4012                 1.3320
 Frc consts  --      1.5447                 1.6605                 1.6033
 IR Inten    --      4.2185                 0.1952                 7.0611

                     61                     62                     63
                      A                      A                      A
 Frequencies --   1441.2823              1474.5782              1474.6478
 Red. masses --      1.3742                 1.1033                 1.0867
 Frc consts  --      1.6819                 1.4134                 1.3923
 IR Inten    --     16.4695                 6.5275                 4.6070

                     64                     65                     66
                      A                      A                      A
 Frequencies --   1482.1485              1484.7246              1495.1457
 Red. masses --      1.0874                 1.1142                 1.1119
 Frc consts  --      1.4074                 1.4472                 1.4645
 IR Inten    --      8.1285                13.7659                13.9537

                     67                     68                     69
                      A                      A                      A
 Frequencies --   1503.5126              1507.7600              1516.5319
 Red. masses --      1.0833                 1.0937                 1.0997
 Frc consts  --      1.4428                 1.4649                 1.4901
 IR Inten    --      3.0604                 2.8812                19.6927

                     70                     71                     72
                      A                      A                      A
 Frequencies --   3013.4620              3025.3528              3047.3394
 Red. masses --      1.0707                 1.0714                 1.0688
 Frc consts  --      5.7288                 5.7779                 5.8480
 IR Inten    --     79.2983                58.3359                51.0476

                     73                     74                     75
                      A                      A                      A
 Frequencies --   3063.8384              3067.0914              3069.0842
 Red. masses --      1.0637                 1.0716                 1.0760
 Frc consts  --      5.8829                 5.9396                 5.9714
 IR Inten    --     37.7187                 7.8514                36.2032

                     76                     77                     78
                      A                      A                      A
 Frequencies --   3072.6315              3077.5190              3081.0002
 Red. masses --      1.0640                 1.0750                 1.0610
 Frc consts  --      5.9188                 5.9985                 5.9338
 IR Inten    --     24.5421               112.9225                22.3779

                     79                     80                     81
                      A                      A                      A
 Frequencies --   3082.0682              3114.6167              3117.2336
 Red. masses --      1.0705                 1.0981                 1.1009
 Frc consts  --      5.9915                 6.2763                 6.3028
 IR Inten    --     52.7786                37.1303                30.9143

                     82                     83                     84
                      A                      A                      A
 Frequencies --   3119.8569              3125.9306              3129.7938
 Red. masses --      1.1021                 1.1010                 1.1031
 Frc consts  --      6.3201                 6.3387                 6.3666
 IR Inten    --     60.9812                55.0042                38.5460

                     85                     86                     87
                      A                      A                      A
 Frequencies --   3131.8299              3135.1321              3143.4858
 Red. masses --      1.0975                 1.0976                 1.0923
 Frc consts  --      6.3421                 6.3562                 6.3592
 IR Inten    --     48.6964                44.0021                31.4091

 - Thermochemistry -
 -------------------
 Temperature   298.150 Kelvin.  Pressure   1.00000 Atm.
 Atom     1 has atomic number  6 and mass  12.00000

 Molecular mass:   186.12559 amu.
 Principal axes and moments of inertia in atomic units:
                           1         2         3
     Eigenvalues --  1006.120723893.609333978.31850
           X            0.99998  -0.00085   0.00580
           Y            0.00159   0.99146  -0.13037
           Z           -0.00564   0.13038   0.99145
 This molecule is an asymmetric top.
 Rotational symmetry number  1.
 Warning -- assumption of classical behavior for rotation
           may cause significant error
 Rotational temperatures (Kelvin)      0.08609     0.02225     0.02177
 Rotational constants (GHZ):           1.79376     0.46351     0.45364
 Zero-point vibrational energy     737825.5 (Joules/Mol)
                                  176.34452 (Kcal/Mol)
 Warning -- explicit consideration of  17 degrees of freedom as
           vibrations may cause significant error
 Vibrational temperatures:     58.95    97.93   156.79   200.16   263.46
          (Kelvin)            323.83   379.84   406.20   500.97   540.32
                              570.57   628.64   647.36   709.47   751.83
                              770.73   855.63  1008.20  1076.08  1191.18
                             1206.30  1209.64  1247.88  1259.31  1290.88
                             1302.51  1318.71  1333.64  1365.11  1436.68
                             1494.03  1497.79  1521.24  1522.27  1536.81
                             1550.85  1586.52  1656.94  1661.64  1685.39
                             1710.46  1743.97  1774.57  1776.68  1793.87
                             1855.49  1869.33  1904.40  1922.17  1954.09
                             1961.26  1970.73  1988.97  1996.01  2003.55
                             2008.39  2019.29  2035.24  2040.55  2056.53
                             2073.68  2121.59  2121.69  2132.48  2136.19
                             2151.18  2163.22  2169.33  2181.95  4335.70
                             4352.81  4384.44  4408.18  4412.86  4415.73
                             4420.83  4427.86  4432.87  4434.41  4481.24
                             4485.00  4488.78  4497.52  4503.08  4506.00
                             4510.76  4522.77

 Zero-point correction=                           0.281023 (Hartree/Particle)
 Thermal correction to Energy=                    0.292590
 Thermal correction to Enthalpy=                  0.293534
 Thermal correction to Gibbs Free Energy=         0.243095
 Sum of electronic and zero-point Energies=           -617.223074
 Sum of electronic and thermal Energies=              -617.211507
 Sum of electronic and thermal Enthalpies=            -617.210563
 Sum of electronic and thermal Free Energies=         -617.261002

                     E (Thermal)             CV                S
                      KCal/Mol        Cal/Mol-Kelvin    Cal/Mol-Kelvin
 Total                  183.603             46.397            106.158
 Electronic               0.000              0.000              0.000
 Translational            0.889              2.981             41.570
 Rotational               0.889              2.981             31.122
 Vibrational            181.826             40.435             33.466
 Vibration     1          0.594              1.981              5.211
 Vibration     2          0.598              1.969              4.209
 Vibration     3          0.606              1.942              3.287
 Vibration     4          0.615              1.914              2.816
 Vibration     5          0.631              1.863              2.296
 Vibration     6          0.650              1.803              1.918
 Vibration     7          0.671              1.739              1.635
 Vibration     8          0.681              1.706              1.520
 Vibration     9          0.726              1.579              1.174
 Vibration    10          0.746              1.522              1.057
 Vibration    11          0.763              1.477              0.975
 Vibration    12          0.797              1.390              0.836
 Vibration    13          0.809              1.361              0.796
 Vibration    14          0.849              1.265              0.676
 Vibration    15          0.878              1.200              0.604
 Vibration    16          0.891              1.171              0.575
 Vibration    17          0.952              1.043              0.459

 Optimization completed.
    -- Stationary point found.
 Normal termination of Gaussian 16 at Mon Nov  5 05:29:53 2018.
