 Gaussian 16, Revision A.03,
 Gaussian 16:  ES64L-G16RevA.03 25-Dec-2016

 ----------------------------------------------------------------------
 #M062X/6-311++G(2d,2p) opt=ModRedundant freq=noraman SCRF=(Solvent=Wat
 er)
 ----------------------------------------------------------------------

 ----------------------------
 D_1a_4a_L_PHI.inp_extract_12
 ----------------------------
 Symbolic Z-matrix:
 Charge =  0 Multiplicity = 1

 SCF Done:  E(RM062X) =  -617.498940800     A.U. after   12 cycles
 SCF Done:  E(RM062X) =  -617.500720098     A.U. after   10 cycles
 SCF Done:  E(RM062X) =  -617.500910092     A.U. after   10 cycles
 SCF Done:  E(RM062X) =  -617.500927892     A.U. after    8 cycles
 SCF Done:  E(RM062X) =  -617.500928411     A.U. after    7 cycles
 SCF Done:  E(RM062X) =  -617.500928570     A.U. after    6 cycles
 Optimization completed.
    -- Stationary point found.
 Normal termination of Gaussian 16 at Mon Nov  5 01:23:52 2018.

 ----------------------------------------------------------------------
 #N Geom=AllCheck Guess=TCheck SCRF=Check GenChk RM062X/6-311++G(2d,2p)
  Freq
 ----------------------------------------------------------------------

 Structure from the checkpoint file:  "D_1a_4a_L_PHI.inp_extract_12.chk"
 ----------------------------
 D_1a_4a_L_PHI.inp_extract_12
 ----------------------------
 Charge =  0 Multiplicity = 1

                         Standard orientation:
 ---------------------------------------------------------------------
 Center     Atomic      Atomic             Coordinates (Angstroms)
 Number     Number       Type             X           Y           Z
 ---------------------------------------------------------------------
      1          6           0       -3.280640    0.376123    0.855220
      2          6           0       -1.095671   -0.185499   -0.927471
      3          6           0        2.091660   -1.467827    0.392974
      4          6           0       -2.137791    1.381880    0.728695
      5          6           0        3.093633    0.803271    0.649912
      6          8           0        2.176976    1.319931   -0.307101
      7          6           0       -2.772329   -1.018448    0.530647
      8          6           0        1.187080   -0.878258   -0.680322
      9          6           0        2.505966   -0.386840    1.391627
     10          6           0        1.846261    0.356683   -1.287796
     11          8           0       -2.177368   -1.071265   -0.767638
     12          8           0       -0.049881   -0.557232   -0.056235
     13          6           0       -1.506391    1.255450   -0.656287
     14          1           0       -4.080869    0.636447    0.158160
     15          1           0       -3.702123    0.379893    1.860905
     16          1           0        2.979263   -1.876012   -0.095735
     17          1           0       -2.493651    2.398643    0.890747
     18          1           0       -1.383489    1.174332    1.491103
     19          1           0       -2.038606   -1.336805    1.275857
     20          1           0       -3.580901   -1.745602    0.510968
     21          1           0        1.638050   -0.056220    1.963703
     22          1           0        3.241607   -0.775825    2.095851
     23          1           0        2.747978    0.040960   -1.827187
     24          1           0        1.182625    0.849201   -1.997362
     25          1           0       -2.226631    1.552459   -1.421532
     26          1           0       -0.626343    1.891479   -0.752350
     27          1           0       -0.779590   -0.314838   -1.964156
     28          1           0        4.018209    0.508417    0.137411
     29          1           0        3.322439    1.623097    1.327418
     30          1           0        1.578322   -2.291093    0.888424
     31          1           0        1.015215   -1.609210   -1.477632
 ---------------------------------------------------------------------

 SCF Done:  E(RM062X) =  -617.500928570     A.U. after    1 cycles

 The electronic state is 1-A.
 Alpha  occ. eigenvalues --  -19.62986 -19.62927 -19.62805 -10.63493 -10.59064
 Alpha  occ. eigenvalues --  -10.58191 -10.57959 -10.57700 -10.53330 -10.52960
 Alpha  occ. eigenvalues --  -10.52953 -10.52894 -10.52824  -1.19892  -1.16564
 Alpha  occ. eigenvalues --   -1.13295  -0.90816  -0.89761  -0.86823  -0.84890
 Alpha  occ. eigenvalues --   -0.74711  -0.73619  -0.72976  -0.71609  -0.66459
 Alpha  occ. eigenvalues --   -0.62676  -0.59752  -0.57841  -0.57707  -0.55771
 Alpha  occ. eigenvalues --   -0.54648  -0.53601  -0.51792  -0.50611  -0.49697
 Alpha  occ. eigenvalues --   -0.48059  -0.47403  -0.46104  -0.45309  -0.45231
 Alpha  occ. eigenvalues --   -0.43690  -0.42542  -0.41453  -0.40385  -0.38773
 Alpha  occ. eigenvalues --   -0.38169  -0.37904  -0.37143  -0.34382  -0.33188
 Alpha  occ. eigenvalues --   -0.31802
 Alpha virt. eigenvalues --   -0.00147   0.00797   0.00834   0.01121   0.02258
 Alpha virt. eigenvalues --    0.02585   0.02703   0.03195   0.03270   0.04742
 Alpha virt. eigenvalues --    0.04860   0.04973   0.05330   0.05794   0.06966

 Mulliken charges:
               1
     1  C   -0.369854
     2  C   -0.274338
     3  C   -0.492430
     4  C   -0.300091
     5  C   -0.199533
     6  O   -0.274270
     7  C   -0.188577
     8  C    0.169563
     9  C   -0.300710
    10  C   -0.457614
    11  O   -0.292580
    12  O   -0.269361
    13  C   -0.161954
    14  H    0.167197
    15  H    0.166010
    16  H    0.209381
    17  H    0.180874
    18  H    0.166809
    19  H    0.162514
    20  H    0.212172
    21  H    0.164437
    22  H    0.178368
    23  H    0.179556
    24  H    0.208170
    25  H    0.195338
    26  H    0.176288
    27  H    0.266443
    28  H    0.156113
    29  H    0.196967
    30  H    0.176001
    31  H    0.249112
 Sum of Mulliken charges =  -0.00000

 Dipole moment (field-independent basis, Debye):
    X=              1.5118    Y=             -0.4125    Z=              0.2442  Tot=              1.5860
 Quadrupole moment (field-independent basis, Debye-Ang):
   XX=            -72.8039   YY=            -84.1810   ZZ=            -76.4775
   XY=             -7.1995   XZ=             -2.9177   YZ=             -0.8551

  Exact polarizability: 170.260   0.357 155.286  -1.205   0.233 158.199
 Approx polarizability: 146.716  -0.363 139.664  -0.038   0.709 144.923

 ******    1 imaginary frequencies (negative Signs) ******

                      1                      2                      3
                      A                      A                      A
 Frequencies --    -26.4790                63.0599                83.1733
 Red. masses --      4.4434                 3.5670                 3.2952
 Frc consts  --      0.0018                 0.0084                 0.0134
 IR Inten    --      3.3969                 2.0137                 1.6403

                      4                      5                      6
                      A                      A                      A
 Frequencies --    140.3388               179.4798               229.5098
 Red. masses --      3.4601                 3.7078                 2.5395
 Frc consts  --      0.0402                 0.0704                 0.0788
 IR Inten    --      0.9058                 5.8473                 3.6166

                      7                      8                      9
                      A                      A                      A
 Frequencies --    259.6042               287.6034               337.2640
 Red. masses --      2.9239                 2.3027                 2.4653
 Frc consts  --      0.1161                 0.1122                 0.1652
 IR Inten    --      2.9855                 3.8254                 3.1718

                     10                     11                     12
                      A                      A                      A
 Frequencies --    367.8304               418.7305               435.6639
 Red. masses --      1.9185                 2.5916                 3.5777
 Frc consts  --      0.1529                 0.2677                 0.4001
 IR Inten    --      1.3960                 6.2620                10.1812

                     13                     14                     15
                      A                      A                      A
 Frequencies --    441.1638               511.1289               524.1525
 Red. masses --      2.1052                 2.8261                 2.2124
 Frc consts  --      0.2414                 0.4350                 0.3581
 IR Inten    --      4.2644                 5.5633                 1.7870

                     16                     17                     18
                      A                      A                      A
 Frequencies --    529.5184               552.0331               669.4687
 Red. masses --      3.8267                 2.6626                 2.5059
 Frc consts  --      0.6322                 0.4781                 0.6617
 IR Inten    --      9.0194                 7.7091                13.2161

                     19                     20                     21
                      A                      A                      A
 Frequencies --    743.9327               835.7760               838.8806
 Red. masses --      2.5161                 1.8695                 2.6121
 Frc consts  --      0.8204                 0.7694                 1.0830
 IR Inten    --      7.5079                 0.2229                12.5561

                     22                     23                     24
                      A                      A                      A
 Frequencies --    852.0944               871.5747               879.7275
 Red. masses --      3.3381                 1.8422                 1.8572
 Frc consts  --      1.4280                 0.8245                 0.8469
 IR Inten    --      3.3560                15.4829                18.4940

                     25                     26                     27
                      A                      A                      A
 Frequencies --    900.5734               902.8622               907.2851
 Red. masses --      2.5428                 2.3845                 2.5041
 Frc consts  --      1.2150                 1.1452                 1.2145
 IR Inten    --     22.3054                37.0797                36.7592

                     28                     29                     30
                      A                      A                      A
 Frequencies --    935.2502               951.8896              1001.6184
 Red. masses --      1.7378                 1.7244                 1.7711
 Frc consts  --      0.8956                 0.9206                 1.0469
 IR Inten    --      8.8024                 4.9718                41.4831

                     31                     32                     33
                      A                      A                      A
 Frequencies --   1033.1522              1041.7690              1057.8211
 Red. masses --      2.0333                 2.3351                 1.9534
 Frc consts  --      1.2787                 1.4931                 1.2879
 IR Inten    --     26.3536                61.5934                 7.2161

                     34                     35                     36
                      A                      A                      A
 Frequencies --   1067.9445              1075.3066              1080.5063
 Red. masses --      1.4828                 2.3988                 2.6234
 Frc consts  --      0.9964                 1.6342                 1.8046
 IR Inten    --     27.2538                87.3998               283.3432

                     37                     38                     39
                      A                      A                      A
 Frequencies --   1103.6974              1144.9810              1155.1323
 Red. masses --      1.6001                 2.2701                 2.7784
 Frc consts  --      1.1484                 1.7534                 2.1843
 IR Inten    --     74.5253               139.1296                44.5766

                     40                     41                     42
                      A                      A                      A
 Frequencies --   1165.9395              1184.6176              1210.7618
 Red. masses --      3.5077                 2.5315                 1.4165
 Frc consts  --      2.8095                 2.0931                 1.2235
 IR Inten    --    133.7148                24.0364                13.8104

                     43                     44                     45
                      A                      A                      A
 Frequencies --   1231.4883              1240.8661              1249.0724
 Red. masses --      1.4342                 1.6883                 1.8136
 Frc consts  --      1.2815                 1.5316                 1.6671
 IR Inten    --     28.1428               114.3795                43.6707

                     46                     47                     48
                      A                      A                      A
 Frequencies --   1286.6168              1301.5984              1318.0492
 Red. masses --      1.2052                 1.1240                 1.1484
 Frc consts  --      1.1755                 1.1220                 1.1754
 IR Inten    --     25.9026                 4.7771                 5.3061

                     49                     50                     51
                      A                      A                      A
 Frequencies --   1337.7378              1354.7292              1366.2423
 Red. masses --      1.2197                 1.3345                 1.3289
 Frc consts  --      1.2860                 1.4431                 1.4615
 IR Inten    --     10.7636                21.1353                 2.5461

                     52                     53                     54
                      A                      A                      A
 Frequencies --   1370.6381              1382.4028              1384.1741
 Red. masses --      1.7120                 1.3572                 1.5065
 Frc consts  --      1.8949                 1.5282                 1.7006
 IR Inten    --      5.3544                38.0230                 8.1907

                     55                     56                     57
                      A                      A                      A
 Frequencies --   1390.8609              1394.2742              1401.1243
 Red. masses --      1.7159                 1.4477                 1.3565
 Frc consts  --      1.9558                 1.6581                 1.5690
 IR Inten    --     22.1867                13.9469                 1.1483

                     58                     59                     60
                      A                      A                      A
 Frequencies --   1409.1805              1420.5027              1432.3058
 Red. masses --      1.3717                 1.3845                 1.3672
 Frc consts  --      1.6049                 1.6460                 1.6525
 IR Inten    --     11.9315                22.6965                 3.9891

                     61                     62                     63
                      A                      A                      A
 Frequencies --   1449.2749              1474.9294              1476.0701
 Red. masses --      1.2568                 1.1060                 1.0871
 Frc consts  --      1.5553                 1.4175                 1.3955
 IR Inten    --      9.3039                 5.1286                 6.1153

                     64                     65                     66
                      A                      A                      A
 Frequencies --   1482.0239              1485.3958              1494.4451
 Red. masses --      1.0868                 1.1184                 1.1056
 Frc consts  --      1.4064                 1.4539                 1.4548
 IR Inten    --      9.5303                14.9098                12.8559

                     67                     68                     69
                      A                      A                      A
 Frequencies --   1497.9660              1510.4010              1511.9826
 Red. masses --      1.0840                 1.0945                 1.1024
 Frc consts  --      1.4331                 1.4712                 1.4849
 IR Inten    --      6.1098                 5.3173                 9.5950

                     70                     71                     72
                      A                      A                      A
 Frequencies --   3014.7194              3022.4927              3039.0900
 Red. masses --      1.0707                 1.0703                 1.0831
 Frc consts  --      5.7333                 5.7608                 5.8939
 IR Inten    --     81.2987                40.9455                76.5042

                     73                     74                     75
                      A                      A                      A
 Frequencies --   3057.7130              3063.8837              3067.4209
 Red. masses --      1.0688                 1.0637                 1.0640
 Frc consts  --      5.8874                 5.8831                 5.8985
 IR Inten    --     37.8532                43.9756                21.5375

                     76                     77                     78
                      A                      A                      A
 Frequencies --   3071.1879              3072.3087              3080.5486
 Red. masses --      1.0622                 1.0652                 1.0602
 Frc consts  --      5.9031                 5.9237                 5.9278
 IR Inten    --     32.7445                46.4881                23.1947

                     79                     80                     81
                      A                      A                      A
 Frequencies --   3086.6667              3112.9904              3118.3107
 Red. masses --      1.0851                 1.0981                 1.1010
 Frc consts  --      6.0910                 6.2695                 6.3079
 IR Inten    --     77.1877                41.2450                45.4133

                     82                     83                     84
                      A                      A                      A
 Frequencies --   3120.8039              3123.0585              3126.5124
 Red. masses --      1.0994                 1.0953                 1.1022
 Frc consts  --      6.3087                 6.2940                 6.3482
 IR Inten    --     55.8928                55.8208                13.3067

                     85                     86                     87
                      A                      A                      A
 Frequencies --   3127.0901              3132.5556              3136.3199
 Red. masses --      1.1015                 1.0971                 1.0993
 Frc consts  --      6.3462                 6.3431                 6.3709
 IR Inten    --     58.2460                46.5283                46.2639

 - Thermochemistry -
 -------------------
 Temperature   298.150 Kelvin.  Pressure   1.00000 Atm.
 Atom     1 has atomic number  6 and mass  12.00000

 Molecular mass:   186.12559 amu.
 Principal axes and moments of inertia in atomic units:
                           1         2         3
     Eigenvalues --  1157.029143679.402113865.41722
           X            0.99985  -0.01686  -0.00457
           Y            0.01672   0.99940  -0.03040
           Z            0.00508   0.03031   0.99953
 This molecule is an asymmetric top.
 Rotational symmetry number  1.
 Warning -- assumption of classical behavior for rotation
           may cause significant error
 Rotational temperatures (Kelvin)      0.07486     0.02354     0.02241
 Rotational constants (GHZ):           1.55981     0.49050     0.46689
    1 imaginary frequencies ignored.
 Zero-point vibrational energy     736904.7 (Joules/Mol)
                                  176.12445 (Kcal/Mol)
 Warning -- explicit consideration of  16 degrees of freedom as
           vibrations may cause significant error
 Vibrational temperatures:     90.73   119.67   201.92   258.23   330.21
          (Kelvin)            373.51   413.80   485.25   529.23   602.46
                              626.82   634.74   735.40   754.14   761.86
                              794.25   963.22  1070.35  1202.50  1206.96
                             1225.97  1254.00  1265.73  1295.72  1299.02
                             1305.38  1345.62  1369.56  1441.11  1486.48
                             1498.87  1521.97  1536.53  1547.13  1554.61
                             1587.97  1647.37  1661.98  1677.53  1704.40
                             1742.02  1771.84  1785.33  1797.14  1851.15
                             1872.71  1896.38  1924.71  1949.15  1965.72
                             1972.04  1988.97  1991.52  2001.14  2006.05
                             2015.91  2027.50  2043.79  2060.77  2085.18
                             2122.09  2123.74  2132.30  2137.15  2150.17
                             2155.24  2173.13  2175.41  4337.51  4348.69
                             4372.57  4399.37  4408.25  4413.33  4418.75
                             4420.37  4432.22  4441.02  4478.90  4486.55
                             4490.14  4493.38  4498.35  4499.19  4507.05
                             4512.46

 Zero-point correction=                           0.280672 (Hartree/Particle)
 Thermal correction to Energy=                    0.291471
 Thermal correction to Enthalpy=                  0.292415
 Thermal correction to Gibbs Free Energy=         0.244065
 Sum of electronic and zero-point Energies=           -617.220256
 Sum of electronic and thermal Energies=              -617.209457
 Sum of electronic and thermal Enthalpies=            -617.208513
 Sum of electronic and thermal Free Energies=         -617.256864

                     E (Thermal)             CV                S
                      KCal/Mol        Cal/Mol-Kelvin    Cal/Mol-Kelvin
 Total                  182.901             44.523            101.763
 Electronic               0.000              0.000              0.000
 Translational            0.889              2.981             41.570
 Rotational               0.889              2.981             31.176
 Vibrational            181.124             38.561             29.017
 Vibration     1          0.597              1.972              4.359
 Vibration     2          0.600              1.961              3.815
 Vibration     3          0.615              1.913              2.799
 Vibration     4          0.629              1.868              2.334
 Vibration     5          0.652              1.796              1.883
 Vibration     6          0.668              1.746              1.664
 Vibration     7          0.685              1.697              1.488
 Vibration     8          0.718              1.601              1.225
 Vibration     9          0.740              1.538              1.089
 Vibration    10          0.782              1.430              0.896
 Vibration    11          0.796              1.392              0.840
 Vibration    12          0.801              1.380              0.823
 Vibration    13          0.866              1.225              0.631
 Vibration    14          0.879              1.197              0.600
 Vibration    15          0.884              1.185              0.588
 Vibration    16          0.907              1.135              0.540

 Optimization completed.
    -- Stationary point found.
 Normal termination of Gaussian 16 at Mon Nov  5 02:19:16 2018.
