 Gaussian 16, Revision A.03,
 Gaussian 16:  ES64L-G16RevA.03 25-Dec-2016

 ----------------------------------------------------------------------
 #M062X/6-311++G(2d,2p) opt=ModRedundant freq=noraman SCRF=(Solvent=Wat
 er)
 ----------------------------------------------------------------------

 ----------------------------
 D_1a_4a_L_PHI.inp_extract_17
 ----------------------------
 Symbolic Z-matrix:
 Charge =  0 Multiplicity = 1

 SCF Done:  E(RM062X) =  -617.497300633     A.U. after   12 cycles
 SCF Done:  E(RM062X) =  -617.499032982     A.U. after   10 cycles
 SCF Done:  E(RM062X) =  -617.499263736     A.U. after   10 cycles
 SCF Done:  E(RM062X) =  -617.499371244     A.U. after   10 cycles
 SCF Done:  E(RM062X) =  -617.499381678     A.U. after    8 cycles
 SCF Done:  E(RM062X) =  -617.499382419     A.U. after    7 cycles
 Optimization completed.
    -- Stationary point found.
 Normal termination of Gaussian 16 at Mon Nov  5 02:57:43 2018.

 ----------------------------------------------------------------------
 #N Geom=AllCheck Guess=TCheck SCRF=Check GenChk RM062X/6-311++G(2d,2p)
  Freq
 ----------------------------------------------------------------------

 Structure from the checkpoint file:  "D_1a_4a_L_PHI.inp_extract_17.chk"
 ----------------------------
 D_1a_4a_L_PHI.inp_extract_17
 ----------------------------
 Charge =  0 Multiplicity = 1

                         Standard orientation:
 ---------------------------------------------------------------------
 Center     Atomic      Atomic             Coordinates (Angstroms)
 Number     Number       Type             X           Y           Z
 ---------------------------------------------------------------------
      1          6           0       -3.442119   -0.428522    0.417068
      2          6           0       -1.002279    0.515417   -0.807479
      3          6           0        1.723212    1.354612    0.192439
      4          6           0       -2.514823    0.491869    1.208219
      5          6           0        3.496738   -0.326678   -0.295656
      6          8           0        2.639959   -1.372395    0.142015
      7          6           0       -2.633646   -1.202253   -0.608726
      8          6           0        0.866888    0.203190    0.721947
      9          6           0        2.701907    0.839707   -0.861682
     10          6           0        1.763084   -0.942077    1.165421
     11          8           0       -1.907517   -0.324412   -1.471948
     12          8           0        0.006125   -0.327403   -0.276090
     13          6           0       -1.723195    1.365240    0.236234
     14          1           0       -4.200997    0.165651   -0.097312
     15          1           0       -3.957471   -1.129707    1.073952
     16          1           0        2.276310    1.778320    1.034328
     17          1           0       -3.080972    1.116578    1.898024
     18          1           0       -1.831934   -0.115741    1.807274
     19          1           0       -1.935569   -1.878165   -0.109888
     20          1           0       -3.273176   -1.787385   -1.265496
     21          1           0        2.156138    0.503632   -1.745007
     22          1           0        3.385266    1.629877   -1.172817
     23          1           0        2.338964   -0.617248    2.040223
     24          1           0        1.156013   -1.802281    1.441391
     25          1           0       -2.408581    2.010248   -0.316937
     26          1           0       -1.023904    2.019967    0.754030
     27          1           0       -0.572693    1.148882   -1.587430
     28          1           0        4.110461    0.013588    0.548356
     29          1           0        4.153893   -0.763417   -1.044578
     30          1           0        1.095725    2.151233   -0.208003
     31          1           0        0.289384    0.526625    1.591366
 ---------------------------------------------------------------------

 SCF Done:  E(RM062X) =  -617.499382419     A.U. after    1 cycles

 The electronic state is 1-A.
 Alpha  occ. eigenvalues --  -19.63131 -19.62895 -19.62876 -10.63758 -10.59000
 Alpha  occ. eigenvalues --  -10.58176 -10.57946 -10.57735 -10.53418 -10.53304
 Alpha  occ. eigenvalues --  -10.53265 -10.53038 -10.52936  -1.20036  -1.16544
 Alpha  occ. eigenvalues --   -1.13233  -0.90332  -0.90133  -0.87452  -0.84961
 Alpha  occ. eigenvalues --   -0.75045  -0.74093  -0.72971  -0.71247  -0.66620
 Alpha  occ. eigenvalues --   -0.61912  -0.59899  -0.58885  -0.57270  -0.56250
 Alpha  occ. eigenvalues --   -0.54717  -0.52976  -0.52181  -0.51417  -0.49596
 Alpha  occ. eigenvalues --   -0.48122  -0.46895  -0.46360  -0.45927  -0.45325
 Alpha  occ. eigenvalues --   -0.44253  -0.42878  -0.40578  -0.40294  -0.39345
 Alpha  occ. eigenvalues --   -0.38744  -0.37564  -0.36814  -0.34887  -0.32650
 Alpha  occ. eigenvalues --   -0.32068
 Alpha virt. eigenvalues --   -0.00171   0.00838   0.00873   0.01106   0.02300
 Alpha virt. eigenvalues --    0.02531   0.02668   0.03397   0.03542   0.04696
 Alpha virt. eigenvalues --    0.04705   0.04928   0.05401   0.06010   0.07353

 Mulliken charges:
               1
     1  C   -0.390687
     2  C   -0.186203
     3  C   -0.445962
     4  C   -0.220490
     5  C   -0.208512
     6  O   -0.309694
     7  C   -0.227201
     8  C    0.218987
     9  C   -0.275958
    10  C   -0.504479
    11  O   -0.272129
    12  O   -0.358663
    13  C   -0.248951
    14  H    0.168319
    15  H    0.171177
    16  H    0.224441
    17  H    0.191384
    18  H    0.156679
    19  H    0.162094
    20  H    0.211192
    21  H    0.157809
    22  H    0.184822
    23  H    0.197228
    24  H    0.196434
    25  H    0.220005
    26  H    0.197099
    27  H    0.282615
    28  H    0.141484
    29  H    0.204020
    30  H    0.144748
    31  H    0.218392
 Sum of Mulliken charges =  -0.00000

 Dipole moment (field-independent basis, Debye):
    X=             -0.2688    Y=              3.5402    Z=              3.2810  Tot=              4.8343
 Quadrupole moment (field-independent basis, Debye-Ang):
   XX=            -73.6275   YY=            -81.1266   ZZ=            -81.3213
   XY=              6.8554   XZ=             -3.1001   YZ=             -2.1092

  Exact polarizability: 172.544   3.666 155.874  -1.518  -1.204 154.949
 Approx polarizability: 145.939   2.406 142.701   0.711  -0.298 143.482

                      1                      2                      3
                      A                      A                      A
 Frequencies --     58.7465                62.7168               105.7824
 Red. masses --      3.7900                 3.7049                 3.7004
 Frc consts  --      0.0077                 0.0086                 0.0244
 IR Inten    --      1.2035                 1.3142                 0.9503

                      4                      5                      6
                      A                      A                      A
 Frequencies --    143.4119               195.1952               219.7321
 Red. masses --      3.6046                 2.7671                 3.7859
 Frc consts  --      0.0437                 0.0621                 0.1077
 IR Inten    --      0.1714                 1.2498                10.5600

                      7                      8                      9
                      A                      A                      A
 Frequencies --    266.7255               285.4149               347.3499
 Red. masses --      2.5997                 2.2648                 2.1513
 Frc consts  --      0.1090                 0.1087                 0.1529
 IR Inten    --      1.5827                 2.2481                 4.9208

                     10                     11                     12
                      A                      A                      A
 Frequencies --    400.7157               406.8556               430.5597
 Red. masses --      2.6832                 2.3183                 2.6067
 Frc consts  --      0.2539                 0.2261                 0.2847
 IR Inten    --     11.6834                14.1379                 3.0972

                     13                     14                     15
                      A                      A                      A
 Frequencies --    447.0346               502.6279               521.8551
 Red. masses --      2.5097                 3.6726                 2.4630
 Frc consts  --      0.2955                 0.5467                 0.3952
 IR Inten    --      1.2007                 2.9012                 2.7268

                     16                     17                     18
                      A                      A                      A
 Frequencies --    547.0442               551.6271               672.9774
 Red. masses --      1.9811                 3.4084                 2.4652
 Frc consts  --      0.3493                 0.6111                 0.6578
 IR Inten    --      3.9753                10.9235                 2.6462

                     19                     20                     21
                      A                      A                      A
 Frequencies --    748.8845               827.7949               841.2131
 Red. masses --      2.5214                 2.0396                 2.6233
 Frc consts  --      0.8331                 0.8234                 1.0937
 IR Inten    --      2.6774                 0.2192                 5.4427

                     22                     23                     24
                      A                      A                      A
 Frequencies --    845.9604               873.9065               882.4589
 Red. masses --      2.9997                 1.9962                 1.8417
 Frc consts  --      1.2648                 0.8982                 0.8450
 IR Inten    --      2.8171                 0.6987                12.8212

                     25                     26                     27
                      A                      A                      A
 Frequencies --    894.5820               903.3612               920.5557
 Red. masses --      2.3714                 2.3177                 2.5388
 Frc consts  --      1.1182                 1.1144                 1.2676
 IR Inten    --     21.7687                28.2711                33.2677

                     28                     29                     30
                      A                      A                      A
 Frequencies --    931.2752               945.6416              1001.1931
 Red. masses --      1.8721                 1.6795                 2.1368
 Frc consts  --      0.9566                 0.8849                 1.2620
 IR Inten    --     50.1209                 4.4515                56.4228

                     31                     32                     33
                      A                      A                      A
 Frequencies --   1031.0981              1038.4214              1061.2645
 Red. masses --      1.8868                 2.2910                 1.8971
 Frc consts  --      1.1819                 1.4556                 1.2589
 IR Inten    --     35.0825                67.8609                16.0796

                     34                     35                     36
                      A                      A                      A
 Frequencies --   1067.2562              1071.7979              1076.4284
 Red. masses --      1.7160                 2.3095                 1.9606
 Frc consts  --      1.1516                 1.5631                 1.3385
 IR Inten    --     24.2638               234.5800                11.7221

                     37                     38                     39
                      A                      A                      A
 Frequencies --   1108.9677              1152.2699              1157.6172
 Red. masses --      1.7021                 2.5150                 2.5263
 Frc consts  --      1.2333                 1.9674                 1.9946
 IR Inten    --     58.8720                45.1770               108.7874

                     40                     41                     42
                      A                      A                      A
 Frequencies --   1172.0127              1188.1378              1216.0033
 Red. masses --      2.6348                 2.8879                 1.4814
 Frc consts  --      2.1323                 2.4019                 1.2906
 IR Inten    --     84.3622               104.0551                61.5182

                     43                     44                     45
                      A                      A                      A
 Frequencies --   1227.8603              1239.9474              1250.5419
 Red. masses --      1.4038                 1.7719                 1.8308
 Frc consts  --      1.2469                 1.6051                 1.6869
 IR Inten    --     40.7264                44.2169                87.6350

                     46                     47                     48
                      A                      A                      A
 Frequencies --   1286.5249              1303.1790              1320.9259
 Red. masses --      1.2125                 1.1321                 1.1559
 Frc consts  --      1.1824                 1.1328                 1.1883
 IR Inten    --     24.4128                13.0136                 6.6214

                     49                     50                     51
                      A                      A                      A
 Frequencies --   1339.6341              1356.1792              1367.0322
 Red. masses --      1.2246                 1.3164                 1.4486
 Frc consts  --      1.2948                 1.4265                 1.5950
 IR Inten    --     14.4932                23.6635                 8.3707

                     52                     53                     54
                      A                      A                      A
 Frequencies --   1369.0764              1377.7879              1386.8800
 Red. masses --      1.3748                 1.3874                 1.4945
 Frc consts  --      1.5183                 1.5517                 1.6937
 IR Inten    --      5.9533                12.6374                10.8626

                     55                     56                     57
                      A                      A                      A
 Frequencies --   1393.1015              1397.5476              1405.9750
 Red. masses --      1.4975                 1.4486                 1.3846
 Frc consts  --      1.7123                 1.6670                 1.6126
 IR Inten    --     10.2409                 9.0489                 4.1048

                     58                     59                     60
                      A                      A                      A
 Frequencies --   1409.9439              1419.3206              1430.8628
 Red. masses --      1.4156                 1.3541                 1.3493
 Frc consts  --      1.6581                 1.6072                 1.6276
 IR Inten    --      7.7626                 7.9663                 7.5636

                     61                     62                     63
                      A                      A                      A
 Frequencies --   1437.5034              1475.0277              1481.6029
 Red. masses --      1.4192                 1.0939                 1.0959
 Frc consts  --      1.7279                 1.4022                 1.4174
 IR Inten    --     10.9822                 6.4799                 4.0287

                     64                     65                     66
                      A                      A                      A
 Frequencies --   1488.1144              1489.4914              1495.8959
 Red. masses --      1.0915                 1.0988                 1.0953
 Frc consts  --      1.4241                 1.4363                 1.4440
 IR Inten    --      2.1596                17.0168                 8.2314

                     67                     68                     69
                      A                      A                      A
 Frequencies --   1500.9762              1510.6159              1511.1654
 Red. masses --      1.1004                 1.1006                 1.0947
 Frc consts  --      1.4607                 1.4797                 1.4728
 IR Inten    --     26.3323                 5.8806                 6.2447

                     70                     71                     72
                      A                      A                      A
 Frequencies --   3011.9327              3028.8889              3060.5898
 Red. masses --      1.0709                 1.0688                 1.0709
 Frc consts  --      5.7236                 5.7769                 5.9105
 IR Inten    --     78.5037                63.0005                40.6660

                     73                     74                     75
                      A                      A                      A
 Frequencies --   3063.4549              3065.2322              3066.5505
 Red. masses --      1.0739                 1.0740                 1.0640
 Frc consts  --      5.9378                 5.9455                 5.8953
 IR Inten    --     22.0692                61.9926                17.3455

                     76                     77                     78
                      A                      A                      A
 Frequencies --   3070.9794              3076.2113              3077.3459
 Red. masses --      1.0632                 1.0770                 1.0611
 Frc consts  --      5.9077                 6.0049                 5.9203
 IR Inten    --     47.4212                84.4843                22.4868

                     79                     80                     81
                      A                      A                      A
 Frequencies --   3084.9632              3112.7539              3114.9432
 Red. masses --      1.0700                 1.0991                 1.0974
 Frc consts  --      5.9995                 6.2747                 6.2735
 IR Inten    --     36.4940                45.5288                38.0203

                     82                     83                     84
                      A                      A                      A
 Frequencies --   3119.5747              3123.8847              3131.1213
 Red. masses --      1.1016                 1.1031                 1.0948
 Frc consts  --      6.3164                 6.3423                 6.3237
 IR Inten    --     71.2687                59.8574                44.6180

                     85                     86                     87
                      A                      A                      A
 Frequencies --   3133.0267              3133.5175              3138.9958
 Red. masses --      1.0954                 1.0981                 1.1012
 Frc consts  --      6.3350                 6.3525                 6.3927
 IR Inten    --     28.9464                35.5180                43.6894

 - Thermochemistry -
 -------------------
 Temperature   298.150 Kelvin.  Pressure   1.00000 Atm.
 Atom     1 has atomic number  6 and mass  12.00000

 Molecular mass:   186.12559 amu.
 Principal axes and moments of inertia in atomic units:
                           1         2         3
     Eigenvalues --  1030.777583919.841924020.79254
           X            0.99989   0.01044  -0.01063
           Y           -0.01094   0.99879  -0.04804
           Z            0.01012   0.04815   0.99879
 This molecule is an asymmetric top.
 Rotational symmetry number  1.
 Warning -- assumption of classical behavior for rotation
           may cause significant error
 Rotational temperatures (Kelvin)      0.08403     0.02210     0.02154
 Rotational constants (GHZ):           1.75085     0.46041     0.44885
 Zero-point vibrational energy     738162.6 (Joules/Mol)
                                  176.42510 (Kcal/Mol)
 Warning -- explicit consideration of  17 degrees of freedom as
           vibrations may cause significant error
 Vibrational temperatures:     84.52    90.24   152.20   206.34   280.84
          (Kelvin)            316.15   383.76   410.65   499.76   576.54
                              585.37   619.48   643.18   723.17   750.83
                              787.07   793.67   968.26  1077.48  1191.01
                             1210.32  1217.15  1257.36  1269.66  1287.10
                             1299.74  1324.47  1339.90  1360.57  1440.49
                             1483.52  1494.06  1526.92  1535.54  1542.08
                             1548.74  1595.56  1657.86  1665.55  1686.26
                             1709.47  1749.56  1766.62  1784.01  1799.25
                             1851.02  1874.98  1900.52  1927.43  1951.24
                             1966.85  1969.80  1982.33  1995.41  2004.36
                             2010.76  2022.88  2028.59  2042.09  2058.69
                             2068.25  2122.24  2131.70  2141.06  2143.05
                             2152.26  2159.57  2173.44  2174.23  4333.50
                             4357.90  4403.51  4407.63  4410.19  4412.08
                             4418.45  4425.98  4427.61  4438.57  4478.56
                             4481.71  4488.37  4494.57  4504.99  4507.73
                             4508.43  4516.31

 Zero-point correction=                           0.281151 (Hartree/Particle)
 Thermal correction to Energy=                    0.292661
 Thermal correction to Enthalpy=                  0.293605
 Thermal correction to Gibbs Free Energy=         0.243486
 Sum of electronic and zero-point Energies=           -617.218231
 Sum of electronic and thermal Energies=              -617.206722
 Sum of electronic and thermal Enthalpies=            -617.205778
 Sum of electronic and thermal Free Energies=         -617.255896

                     E (Thermal)             CV                S
                      KCal/Mol        Cal/Mol-Kelvin    Cal/Mol-Kelvin
 Total                  183.647             46.364            105.483
 Electronic               0.000              0.000              0.000
 Translational            0.889              2.981             41.570
 Rotational               0.889              2.981             31.164
 Vibrational            181.870             40.403             32.750
 Vibration     1          0.596              1.974              4.499
 Vibration     2          0.597              1.972              4.370
 Vibration     3          0.605              1.945              3.345
 Vibration     4          0.616              1.910              2.758
 Vibration     5          0.636              1.847              2.178
 Vibration     6          0.647              1.811              1.961
 Vibration     7          0.672              1.734              1.617
 Vibration     8          0.683              1.701              1.501
 Vibration     9          0.725              1.581              1.178
 Vibration    10          0.767              1.469              0.960
 Vibration    11          0.772              1.455              0.938
 Vibration    12          0.792              1.404              0.857
 Vibration    13          0.806              1.367              0.805
 Vibration    14          0.858              1.244              0.652
 Vibration    15          0.877              1.202              0.606
 Vibration    16          0.902              1.146              0.550
 Vibration    17          0.907              1.136              0.541

 Optimization completed.
    -- Stationary point found.
 Normal termination of Gaussian 16 at Mon Nov  5 03:59:22 2018.
