 Gaussian 16, Revision A.03,
 Gaussian 16:  ES64L-G16RevA.03 25-Dec-2016

 ----------------------------------------------------------------------
 #M062X/6-311++G(2d,2p) opt=ModRedundant freq=noraman SCRF=(Solvent=Wat
 er)
 ----------------------------------------------------------------------

 ---------------------------
 D_1a_4a_L_PHI.inp_extract_0
 ---------------------------
 Symbolic Z-matrix:
 Charge =  0 Multiplicity = 1

 SCF Done:  E(RM062X) =  -617.489513453     A.U. after   12 cycles
 SCF Done:  E(RM062X) =  -617.489656138     A.U. after   11 cycles
 SCF Done:  E(RM062X) =  -617.491443192     A.U. after   11 cycles
 SCF Done:  E(RM062X) =  -617.491772628     A.U. after   10 cycles
 SCF Done:  E(RM062X) =  -617.491879479     A.U. after   10 cycles
 SCF Done:  E(RM062X) =  -617.491900991     A.U. after    9 cycles
 SCF Done:  E(RM062X) =  -617.491905076     A.U. after    8 cycles
 SCF Done:  E(RM062X) =  -617.491905858     A.U. after    7 cycles
 SCF Done:  E(RM062X) =  -617.491905916     A.U. after    6 cycles
 Optimization completed.
    -- Stationary point found.
 Normal termination of Gaussian 16 at Mon Nov  5 01:38:51 2018.

 ----------------------------------------------------------------------
 #N Geom=AllCheck Guess=TCheck SCRF=Check GenChk RM062X/6-311++G(2d,2p)
  Freq
 ----------------------------------------------------------------------

 Structure from the checkpoint file:  "D_1a_4a_L_PHI.inp_extract_0.chk"
 ---------------------------
 D_1a_4a_L_PHI.inp_extract_0
 ---------------------------
 Charge =  0 Multiplicity = 1

                         Standard orientation:
 ---------------------------------------------------------------------
 Center     Atomic      Atomic             Coordinates (Angstroms)
 Number     Number       Type             X           Y           Z
 ---------------------------------------------------------------------
      1          6           0        3.258248   -0.438786   -0.716023
      2          6           0        1.143733    0.294560    1.168319
      3          6           0       -1.766032    1.270277   -0.762874
      4          6           0        2.701976    0.977117   -0.801069
      5          6           0       -3.479011   -0.394133   -0.061664
      6          8           0       -2.451656   -1.302301    0.311583
      7          6           0        2.149990   -1.387324   -0.305413
      8          6           0       -0.701286    0.229918   -0.429060
      9          6           0       -3.017513    1.046787    0.084178
     10          6           0       -1.302299   -1.170857   -0.504341
     11          8           0        1.562561   -1.033728    0.948218
     12          8           0       -0.223899    0.496070    0.886221
     13          6           0        2.069733    1.348136    0.541158
     14          1           0        4.060408   -0.480567    0.024563
     15          1           0        3.669145   -0.763930   -1.671755
     16          1           0       -2.020978    1.171435   -1.820969
     17          1           0        3.492310    1.690652   -1.032562
     18          1           0        1.978719    1.038748   -1.615496
     19          1           0        1.386950   -1.429980   -1.088020
     20          1           0        2.527341   -2.397389   -0.159781
     21          1           0       -2.798786    1.246085    1.134081
     22          1           0       -3.817093    1.720724   -0.223857
     23          1           0       -1.558613   -1.390816   -1.548850
     24          1           0       -0.587687   -1.909683   -0.149696
     25          1           0        2.880913    1.502967    1.255638
     26          1           0        1.514181    2.283272    0.481289
     27          1           0        1.178749    0.413964    2.249657
     28          1           0       -3.774795   -0.591552   -1.100175
     29          1           0       -4.327456   -0.610387    0.584240
     30          1           0       -1.353887    2.267754   -0.612831
     31          1           0        0.109294    0.304198   -1.152918
 ---------------------------------------------------------------------

 SCF Done:  E(RM062X) =  -617.491905916     A.U. after    1 cycles

 The electronic state is 1-A.
 Alpha  occ. eigenvalues --  -19.63338 -19.62793 -19.62633 -10.63875 -10.58805
 Alpha  occ. eigenvalues --  -10.58342 -10.57856 -10.57854 -10.53428 -10.53388
 Alpha  occ. eigenvalues --  -10.53225 -10.53179 -10.52875  -1.19534  -1.16333
 Alpha  occ. eigenvalues --   -1.13294  -0.90697  -0.90482  -0.87316  -0.84556
 Alpha  occ. eigenvalues --   -0.74886  -0.74039  -0.73903  -0.71296  -0.66116
 Alpha  occ. eigenvalues --   -0.63073  -0.59541  -0.57891  -0.57271  -0.55342
 Alpha  occ. eigenvalues --   -0.54715  -0.53638  -0.52605  -0.50752  -0.49908
 Alpha  occ. eigenvalues --   -0.49473  -0.46975  -0.46426  -0.45575  -0.45102
 Alpha  occ. eigenvalues --   -0.43610  -0.41811  -0.41582  -0.40312  -0.38855
 Alpha  occ. eigenvalues --   -0.38606  -0.38284  -0.36540  -0.34235  -0.33658
 Alpha  occ. eigenvalues --   -0.31491
 Alpha virt. eigenvalues --   -0.00232   0.00681   0.00874   0.01180   0.02280
 Alpha virt. eigenvalues --    0.02556   0.02690   0.03190   0.03640   0.04615
 Alpha virt. eigenvalues --    0.04715   0.04875   0.05526   0.06028   0.07537

 Mulliken charges:
               1
     1  C   -0.406042
     2  C   -0.195830
     3  C   -0.613398
     4  C   -0.273813
     5  C   -0.160831
     6  O   -0.305502
     7  C   -0.202629
     8  C    0.117300
     9  C   -0.256240
    10  C   -0.425274
    11  O   -0.288541
    12  O   -0.243296
    13  C   -0.214405
    14  H    0.174042
    15  H    0.174048
    16  H    0.219481
    17  H    0.199070
    18  H    0.179652
    19  H    0.161363
    20  H    0.227867
    21  H    0.170902
    22  H    0.185682
    23  H    0.210703
    24  H    0.232226
    25  H    0.204427
    26  H    0.190041
    27  H    0.244272
    28  H    0.132022
    29  H    0.203442
    30  H    0.157709
    31  H    0.201549
 Sum of Mulliken charges =  -0.00000

 Dipole moment (field-independent basis, Debye):
    X=              1.9305    Y=              2.3653    Z=             -4.0882  Tot=              5.1024
 Quadrupole moment (field-independent basis, Debye-Ang):
   XX=            -71.9223   YY=            -82.2358   ZZ=            -80.6832
   XY=             -3.2714   XZ=              2.0069   YZ=              4.0303

  Exact polarizability: 172.907  -2.829 157.517  -1.430   3.199 152.929
 Approx polarizability: 146.335  -2.594 140.922  -0.097   1.580 144.531

                      1                      2                      3
                      A                      A                      A
 Frequencies --     54.5952                56.0072                95.3424
 Red. masses --      3.2714                 4.3910                 3.0867
 Frc consts  --      0.0057                 0.0081                 0.0165
 IR Inten    --      1.2495                 2.1798                 1.0457

                      4                      5                      6
                      A                      A                      A
 Frequencies --    131.8644               176.7444               209.9419
 Red. masses --      3.6777                 4.3217                 3.0583
 Frc consts  --      0.0377                 0.0795                 0.0794
 IR Inten    --      1.4126                 1.7020                 5.5264

                      7                      8                      9
                      A                      A                      A
 Frequencies --    228.4408               299.3450               345.7360
 Red. masses --      2.4896                 2.5435                 1.8790
 Frc consts  --      0.0765                 0.1343                 0.1323
 IR Inten    --     12.1771                 4.2650                 1.6662

                     10                     11                     12
                      A                      A                      A
 Frequencies --    360.1746               411.5909               422.6055
 Red. masses --      2.2175                 2.5082                 2.1977
 Frc consts  --      0.1695                 0.2504                 0.2313
 IR Inten    --      2.1631                 3.4536                 4.9954

                     13                     14                     15
                      A                      A                      A
 Frequencies --    440.7898               466.8363               513.4248
 Red. masses --      3.3784                 4.1185                 2.7359
 Frc consts  --      0.3867                 0.5288                 0.4249
 IR Inten    --      2.4918                 1.3369                 5.1411

                     16                     17                     18
                      A                      A                      A
 Frequencies --    525.1732               582.9872               687.2804
 Red. masses --      2.2545                 2.6927                 2.7835
 Frc consts  --      0.3664                 0.5392                 0.7747
 IR Inten    --      1.6021                21.6129                11.0844

                     19                     20                     21
                      A                      A                      A
 Frequencies --    744.5657               786.1229               830.3155
 Red. masses --      2.9951                 2.4489                 2.0916
 Frc consts  --      0.9783                 0.8917                 0.8496
 IR Inten    --     14.6941                 3.8606                14.1968

                     22                     23                     24
                      A                      A                      A
 Frequencies --    860.9592               864.3230               876.6573
 Red. masses --      2.4900                 2.7836                 1.6328
 Frc consts  --      1.0874                 1.2252                 0.7393
 IR Inten    --     14.8138                 5.2794                13.3351

                     25                     26                     27
                      A                      A                      A
 Frequencies --    895.4530               903.6734               908.0813
 Red. masses --      2.5699                 2.1551                 2.5498
 Frc consts  --      1.2141                 1.0369                 1.2388
 IR Inten    --     21.6084                26.7565                45.7594

                     28                     29                     30
                      A                      A                      A
 Frequencies --    930.1218               949.0221               990.1028
 Red. masses --      1.8897                 1.6178                 1.9207
 Frc consts  --      0.9632                 0.8585                 1.1093
 IR Inten    --     18.0785                 7.0248                 5.3116

                     31                     32                     33
                      A                      A                      A
 Frequencies --   1026.7482              1047.7555              1056.9394
 Red. masses --      2.0113                 2.2829                 2.0007
 Frc consts  --      1.2493                 1.4766                 1.3168
 IR Inten    --     43.6078                 9.8219                71.7497

                     34                     35                     36
                      A                      A                      A
 Frequencies --   1063.9951              1083.6421              1085.8633
 Red. masses --      2.2645                 2.1034                 1.7165
 Frc consts  --      1.5104                 1.4553                 1.1925
 IR Inten    --     98.4577               179.4532                85.9281

                     37                     38                     39
                      A                      A                      A
 Frequencies --   1106.2954              1146.1666              1152.1182
 Red. masses --      1.5985                 2.5631                 2.5691
 Frc consts  --      1.1527                 1.9839                 2.0092
 IR Inten    --      9.9108               155.2419                32.1917

                     40                     41                     42
                      A                      A                      A
 Frequencies --   1164.7707              1187.2096              1217.9092
 Red. masses --      2.3852                 2.8612                 1.5088
 Frc consts  --      1.9066                 2.3761                 1.3186
 IR Inten    --     25.3210               157.6305                70.7613

                     43                     44                     45
                      A                      A                      A
 Frequencies --   1226.5380              1243.0469              1248.8064
 Red. masses --      1.3740                 1.7326                 1.8648
 Frc consts  --      1.2178                 1.5773                 1.7135
 IR Inten    --      2.0433                42.2182               105.5409

                     46                     47                     48
                      A                      A                      A
 Frequencies --   1301.1481              1302.7018              1324.2286
 Red. masses --      1.1273                 1.2423                 1.1904
 Frc consts  --      1.1244                 1.2421                 1.2299
 IR Inten    --      4.1210                60.5565                16.5247

                     49                     50                     51
                      A                      A                      A
 Frequencies --   1339.7505              1358.8437              1365.1214
 Red. masses --      1.2211                 1.5178                 1.3446
 Frc consts  --      1.2914                 1.6513                 1.4763
 IR Inten    --     11.1796                 2.5440                 4.0045

                     52                     53                     54
                      A                      A                      A
 Frequencies --   1368.1940              1384.8390              1388.2434
 Red. masses --      1.4176                 1.4616                 1.4136
 Frc consts  --      1.5635                 1.6515                 1.6052
 IR Inten    --      0.5244                 9.7268                 5.5350

                     55                     56                     57
                      A                      A                      A
 Frequencies --   1392.7348              1402.6172              1404.3968
 Red. masses --      1.6156                 1.3554                 1.3367
 Frc consts  --      1.8464                 1.5710                 1.5534
 IR Inten    --     12.1178                 1.4885                 9.0078

                     58                     59                     60
                      A                      A                      A
 Frequencies --   1412.8279              1427.6213              1432.6362
 Red. masses --      1.4021                 1.3668                 1.3400
 Frc consts  --      1.6489                 1.6412                 1.6204
 IR Inten    --     23.0874                22.8693                 3.3365

                     61                     62                     63
                      A                      A                      A
 Frequencies --   1449.0136              1474.2617              1476.5529
 Red. masses --      1.1893                 1.0953                 1.0879
 Frc consts  --      1.4712                 1.4026                 1.3975
 IR Inten    --      5.2461                 5.3864                 5.3732

                     64                     65                     66
                      A                      A                      A
 Frequencies --   1485.1465              1485.9733              1492.9358
 Red. masses --      1.0943                 1.1185                 1.0862
 Frc consts  --      1.4220                 1.4551                 1.4264
 IR Inten    --      9.1508                14.4716                 2.4945

                     67                     68                     69
                      A                      A                      A
 Frequencies --   1510.2016              1511.2884              1529.2470
 Red. masses --      1.0993                 1.1004                 1.0888
 Frc consts  --      1.4772                 1.4808                 1.5003
 IR Inten    --      7.8437                13.0822                 3.2127

                     70                     71                     72
                      A                      A                      A
 Frequencies --   3010.7882              3015.7018              3053.5893
 Red. masses --      1.0707                 1.0705                 1.0693
 Frc consts  --      5.7186                 5.7362                 5.8748
 IR Inten    --     71.8042                85.7202                49.5667

                     73                     74                     75
                      A                      A                      A
 Frequencies --   3066.2401              3066.5057              3070.1971
 Red. masses --      1.0637                 1.0637                 1.0668
 Frc consts  --      5.8922                 5.8931                 5.9244
 IR Inten    --     40.6142                35.6861                12.1452

                     76                     77                     78
                      A                      A                      A
 Frequencies --   3077.7315              3079.9022              3111.6942
 Red. masses --      1.0615                 1.0604                 1.0925
 Frc consts  --      5.9243                 5.9265                 6.2326
 IR Inten    --     25.6788                27.6213                78.5319

                     79                     80                     81
                      A                      A                      A
 Frequencies --   3114.0908              3117.1645              3119.8239
 Red. masses --      1.0908                 1.0999                 1.0989
 Frc consts  --      6.2325                 6.2967                 6.3020
 IR Inten    --     44.7012                38.6669                24.2705

                     82                     83                     84
                      A                      A                      A
 Frequencies --   3124.4487              3125.3467              3128.4437
 Red. masses --      1.0955                 1.0976                 1.0964
 Frc consts  --      6.3008                 6.3164                 6.3225
 IR Inten    --     79.6573                18.8000                20.8239

                     85                     86                     87
                      A                      A                      A
 Frequencies --   3129.6437              3132.6547              3151.0516
 Red. masses --      1.0982                 1.0953                 1.0929
 Frc consts  --      6.3377                 6.3331                 6.3937
 IR Inten    --     43.7957                87.1417                18.4192

 - Thermochemistry -
 -------------------
 Temperature   298.150 Kelvin.  Pressure   1.00000 Atm.
 Atom     1 has atomic number  6 and mass  12.00000

 Molecular mass:   186.12559 amu.
 Principal axes and moments of inertia in atomic units:
                           1         2         3
     Eigenvalues --  1063.185853655.596404001.21785
           X            0.99998  -0.00510  -0.00215
           Y            0.00518   0.99936   0.03539
           Z            0.00196  -0.03540   0.99937
 This molecule is an asymmetric top.
 Rotational symmetry number  1.
 Warning -- assumption of classical behavior for rotation
           may cause significant error
 Rotational temperatures (Kelvin)      0.08147     0.02369     0.02165
 Rotational constants (GHZ):           1.69748     0.49369     0.45105
 Zero-point vibrational energy     737627.1 (Joules/Mol)
                                  176.29712 (Kcal/Mol)
 Warning -- explicit consideration of  17 degrees of freedom as
           vibrations may cause significant error
 Vibrational temperatures:     78.55    80.58   137.18   189.72   254.30
          (Kelvin)            302.06   328.68   430.69   497.44   518.21
                              592.19   608.04   634.20   671.67   738.70
                              755.61   838.79   988.84  1071.26  1131.06
                             1194.64  1238.73  1243.57  1261.31  1288.36
                             1300.18  1306.53  1338.24  1365.43  1424.54
                             1477.26  1507.49  1520.70  1530.85  1559.12
                             1562.32  1591.71  1649.08  1657.64  1675.85
                             1708.13  1752.30  1764.71  1788.47  1796.75
                             1872.06  1874.30  1905.27  1927.60  1955.07
                             1964.11  1968.53  1992.47  1997.37  2003.83
                             2018.05  2020.61  2032.74  2054.03  2061.24
                             2084.81  2121.13  2124.43  2136.79  2137.98
                             2148.00  2172.84  2174.41  2200.25  4331.85
                             4338.92  4393.43  4411.64  4412.02  4417.33
                             4428.17  4431.29  4477.03  4480.48  4484.90
                             4488.73  4495.38  4496.68  4501.13  4502.86
                             4507.19  4533.66

 Zero-point correction=                           0.280947 (Hartree/Particle)
 Thermal correction to Energy=                    0.292692
 Thermal correction to Enthalpy=                  0.293636
 Thermal correction to Gibbs Free Energy=         0.242816
 Sum of electronic and zero-point Energies=           -617.210959
 Sum of electronic and thermal Energies=              -617.199214
 Sum of electronic and thermal Enthalpies=            -617.198270
 Sum of electronic and thermal Free Energies=         -617.249090

                     E (Thermal)             CV                S
                      KCal/Mol        Cal/Mol-Kelvin    Cal/Mol-Kelvin
 Total                  183.667             46.717            106.961
 Electronic               0.000              0.000              0.000
 Translational            0.889              2.981             41.570
 Rotational               0.889              2.981             31.120
 Vibrational            181.890             40.756             34.271
 Vibration     1          0.596              1.976              4.644
 Vibration     2          0.596              1.975              4.593
 Vibration     3          0.603              1.953              3.547
 Vibration     4          0.612              1.921              2.919
 Vibration     5          0.628              1.871              2.363
 Vibration     6          0.642              1.826              2.044
 Vibration     7          0.651              1.798              1.891
 Vibration     8          0.692              1.675              1.421
 Vibration     9          0.724              1.584              1.186
 Vibration    10          0.735              1.554              1.121
 Vibration    11          0.776              1.445              0.921
 Vibration    12          0.785              1.421              0.883
 Vibration    13          0.801              1.381              0.824
 Vibration    14          0.824              1.324              0.746
 Vibration    15          0.868              1.220              0.625
 Vibration    16          0.880              1.194              0.598
 Vibration    17          0.940              1.068              0.480

 Optimization completed.
    -- Stationary point found.
 Normal termination of Gaussian 16 at Mon Nov  5 02:41:11 2018.
