 Gaussian 16, Revision A.03,
 Gaussian 16:  ES64L-G16RevA.03 25-Dec-2016

 ----------------------------------------------------------------------
 #M062X/6-311++G(2d,2p) opt=ModRedundant freq=noraman SCRF=(Solvent=Wat
 er)
 ----------------------------------------------------------------------

 ---------------------------
 D_1a_4a_L_PHI.inp_extract_4
 ---------------------------
 Symbolic Z-matrix:
 Charge =  0 Multiplicity = 1

 SCF Done:  E(RM062X) =  -617.489643903     A.U. after   13 cycles
 SCF Done:  E(RM062X) =  -617.490623575     A.U. after   10 cycles
 SCF Done:  E(RM062X) =  -617.490915532     A.U. after   11 cycles
 SCF Done:  E(RM062X) =  -617.491471904     A.U. after   10 cycles
 SCF Done:  E(RM062X) =  -617.491555945     A.U. after   10 cycles
 SCF Done:  E(RM062X) =  -617.491570773     A.U. after    9 cycles
 SCF Done:  E(RM062X) =  -617.491573505     A.U. after    8 cycles
 SCF Done:  E(RM062X) =  -617.491574022     A.U. after    7 cycles
 SCF Done:  E(RM062X) =  -617.491574121     A.U. after    7 cycles
 Optimization completed.
    -- Stationary point found.
 Normal termination of Gaussian 16 at Mon Nov  5 04:14:25 2018.

 ----------------------------------------------------------------------
 #N Geom=AllCheck Guess=TCheck SCRF=Check GenChk RM062X/6-311++G(2d,2p)
  Freq
 ----------------------------------------------------------------------

 Structure from the checkpoint file:  "D_1a_4a_L_PHI.inp_extract_4.chk"
 ---------------------------
 D_1a_4a_L_PHI.inp_extract_4
 ---------------------------
 Charge =  0 Multiplicity = 1

                         Standard orientation:
 ---------------------------------------------------------------------
 Center     Atomic      Atomic             Coordinates (Angstroms)
 Number     Number       Type             X           Y           Z
 ---------------------------------------------------------------------
      1          6           0       -3.437211   -0.139527    0.630244
      2          6           0       -1.065154   -0.068639   -1.025147
      3          6           0        1.751750    0.984480    1.154185
      4          6           0       -2.859610    1.204143    0.199821
      5          6           0        3.554827   -0.066534   -0.207081
      6          8           0        2.613995   -0.977487   -0.758398
      7          6           0       -2.308344   -1.140057    0.785051
      8          6           0        0.798268   -0.070318    0.602891
      9          6           0        2.892417    1.248205    0.172683
     10          6           0        1.588503   -1.300737    0.163783
     11          8           0       -1.468601   -1.243771   -0.373010
     12          8           0        0.118128    0.526237   -0.491020
     13          6           0       -2.142816    0.998669   -1.127595
     14          1           0       -4.147524   -0.491510   -0.121307
     15          1           0       -3.966405   -0.068483    1.580564
     16          1           0        2.161098    0.610534    2.095802
     17          1           0       -3.641143    1.955506    0.097625
     18          1           0       -2.155340    1.564303    0.955332
     19          1           0       -1.710086   -0.868009    1.657450
     20          1           0       -2.687126   -2.147550    0.943109
     21          1           0        2.506941    1.726245   -0.728637
     22          1           0        3.633060    1.915860    0.613673
     23          1           0        2.022733   -1.777576    1.052153
     24          1           0        0.933541   -2.012401   -0.332378
     25          1           0       -2.865200    0.675863   -1.880432
     26          1           0       -1.671304    1.910839   -1.489367
     27          1           0       -0.797887   -0.411999   -2.026800
     28          1           0        4.020344   -0.521551    0.676949
     29          1           0        4.323154    0.076768   -0.964164
     30          1           0        1.195641    1.895376    1.374083
     31          1           0        0.101545   -0.370149    1.382767
 ---------------------------------------------------------------------

 SCF Done:  E(RM062X) =  -617.491574121     A.U. after    1 cycles

 The electronic state is 1-A.
 Alpha  occ. eigenvalues --  -19.63744 -19.62643 -19.62237 -10.63721 -10.58572
 Alpha  occ. eigenvalues --  -10.58356 -10.57762 -10.57508 -10.53238 -10.53168
 Alpha  occ. eigenvalues --  -10.53105 -10.53083 -10.52764  -1.19470  -1.16191
 Alpha  occ. eigenvalues --   -1.13006  -0.91128  -0.90121  -0.87123  -0.84479
 Alpha  occ. eigenvalues --   -0.74697  -0.74110  -0.73358  -0.71120  -0.65780
 Alpha  occ. eigenvalues --   -0.62777  -0.59594  -0.58188  -0.57567  -0.55202
 Alpha  occ. eigenvalues --   -0.53862  -0.53322  -0.52794  -0.51015  -0.49813
 Alpha  occ. eigenvalues --   -0.47935  -0.47124  -0.46496  -0.45483  -0.45210
 Alpha  occ. eigenvalues --   -0.43416  -0.42813  -0.40641  -0.39907  -0.39454
 Alpha  occ. eigenvalues --   -0.38646  -0.37854  -0.36000  -0.34549  -0.33694
 Alpha  occ. eigenvalues --   -0.30946
 Alpha virt. eigenvalues --   -0.00219   0.00792   0.00890   0.01093   0.02218
 Alpha virt. eigenvalues --    0.02492   0.02696   0.03288   0.03420   0.04540
 Alpha virt. eigenvalues --    0.04686   0.04873   0.05531   0.06036   0.07005

 Mulliken charges:
               1
     1  C   -0.376034
     2  C   -0.176886
     3  C   -0.581746
     4  C   -0.273506
     5  C   -0.204464
     6  O   -0.293545
     7  C   -0.138980
     8  C   -0.035487
     9  C   -0.208973
    10  C   -0.288005
    11  O   -0.246208
    12  O   -0.215209
    13  C   -0.289246
    14  H    0.167632
    15  H    0.182380
    16  H    0.219144
    17  H    0.199380
    18  H    0.158540
    19  H    0.145963
    20  H    0.193867
    21  H    0.165582
    22  H    0.179712
    23  H    0.183610
    24  H    0.225551
    25  H    0.191441
    26  H    0.180754
    27  H    0.229938
    28  H    0.134146
    29  H    0.203530
    30  H    0.166667
    31  H    0.200451
 Sum of Mulliken charges =   0.00000

 Dipole moment (field-independent basis, Debye):
    X=             -1.9822    Y=              1.2696    Z=              3.2613  Tot=              4.0221
 Quadrupole moment (field-independent basis, Debye-Ang):
   XX=            -71.5755   YY=            -82.7310   ZZ=            -78.8549
   XY=              2.4800   XZ=              3.7400   YZ=             -3.4054

  Exact polarizability: 172.108   3.115 156.570  -1.052  -2.859 155.682
 Approx polarizability: 145.412   3.135 141.478   0.137  -1.711 144.953

 ******    1 imaginary frequencies (negative Signs) ******

                      1                      2                      3
                      A                      A                      A
 Frequencies --    -81.0461                51.6949                97.2658
 Red. masses --      3.9175                 4.0876                 3.3646
 Frc consts  --      0.0152                 0.0064                 0.0188
 IR Inten    --      5.0507                 0.8968                 1.4664

                      4                      5                      6
                      A                      A                      A
 Frequencies --    123.1268               189.9076               196.2826
 Red. masses --      3.1570                 4.5196                 2.9005
 Frc consts  --      0.0282                 0.0960                 0.0658
 IR Inten    --      2.7669                 4.6186                 0.4957

                      7                      8                      9
                      A                      A                      A
 Frequencies --    238.5067               280.4074               334.5699
 Red. masses --      2.9002                 2.4493                 2.0718
 Frc consts  --      0.0972                 0.1135                 0.1366
 IR Inten    --     10.8832                11.7972                 3.3668

                     10                     11                     12
                      A                      A                      A
 Frequencies --    370.4003               396.3973               430.9060
 Red. masses --      2.3288                 1.9829                 2.9020
 Frc consts  --      0.1882                 0.1836                 0.3175
 IR Inten    --      1.9116                 3.9288                 2.1964

                     13                     14                     15
                      A                      A                      A
 Frequencies --    438.8696               476.7740               521.1023
 Red. masses --      2.6052                 3.9408                 2.8775
 Frc consts  --      0.2956                 0.5278                 0.4604
 IR Inten    --      6.0462                 5.4043                 1.3766

                     16                     17                     18
                      A                      A                      A
 Frequencies --    525.7921               583.8333               696.7994
 Red. masses --      2.0468                 2.5691                 3.0075
 Frc consts  --      0.3334                 0.5160                 0.8603
 IR Inten    --      1.2271                10.1462                 4.8501

                     19                     20                     21
                      A                      A                      A
 Frequencies --    736.3595               806.8404               842.0868
 Red. masses --      2.7484                 2.4362                 2.0362
 Frc consts  --      0.8780                 0.9344                 0.8507
 IR Inten    --     13.7748                 5.9071                 6.2010

                     22                     23                     24
                      A                      A                      A
 Frequencies --    848.7743               862.0919               873.8028
 Red. masses --      3.1899                 2.4211                 1.6408
 Frc consts  --      1.3540                 1.0602                 0.7381
 IR Inten    --     12.8239                16.3975                15.8791

                     25                     26                     27
                      A                      A                      A
 Frequencies --    899.0445               902.1465               906.1770
 Red. masses --      2.2774                 2.6300                 2.5154
 Frc consts  --      1.0846                 1.2612                 1.2170
 IR Inten    --      7.5071                14.6534                59.5689

                     28                     29                     30
                      A                      A                      A
 Frequencies --    928.3060               949.7046               984.3956
 Red. masses --      1.9021                 1.5744                 1.8096
 Frc consts  --      0.9658                 0.8366                 1.0332
 IR Inten    --     11.3797                16.3258                21.3332

                     31                     32                     33
                      A                      A                      A
 Frequencies --   1036.3149              1043.0713              1057.2339
 Red. masses --      2.1125                 2.4201                 1.8523
 Frc consts  --      1.3367                 1.5513                 1.2199
 IR Inten    --     13.3283                32.1285                23.4579

                     34                     35                     36
                      A                      A                      A
 Frequencies --   1060.8866              1069.6048              1083.6386
 Red. masses --      1.8469                 1.7741                 2.3443
 Frc consts  --      1.2247                 1.1958                 1.6219
 IR Inten    --    184.5665                31.9418               125.4203

                     37                     38                     39
                      A                      A                      A
 Frequencies --   1103.3265              1150.3560              1153.1027
 Red. masses --      1.5428                 2.3325                 2.5446
 Frc consts  --      1.1065                 1.8186                 1.9934
 IR Inten    --     20.8795               139.1112                88.0638

                     40                     41                     42
                      A                      A                      A
 Frequencies --   1158.4939              1193.6529              1209.5549
 Red. masses --      2.6785                 2.7550                 1.3555
 Frc consts  --      2.1180                 2.3127                 1.1684
 IR Inten    --     29.2265               163.1161                10.8486

                     43                     44                     45
                      A                      A                      A
 Frequencies --   1229.1719              1243.6736              1245.3086
 Red. masses --      1.3992                 1.9425                 1.8035
 Frc consts  --      1.2455                 1.7702                 1.6479
 IR Inten    --      8.3151               195.3925                11.6507

                     46                     47                     48
                      A                      A                      A
 Frequencies --   1291.5668              1300.7552              1324.4957
 Red. masses --      1.2262                 1.1260                 1.1646
 Frc consts  --      1.2051                 1.1225                 1.2037
 IR Inten    --     27.3191                33.6808                14.6759

                     49                     50                     51
                      A                      A                      A
 Frequencies --   1337.1786              1356.5342              1361.5137
 Red. masses --      1.2498                 1.4699                 1.4111
 Frc consts  --      1.3166                 1.5937                 1.5411
 IR Inten    --     16.5237                 0.9590                 4.6978

                     52                     53                     54
                      A                      A                      A
 Frequencies --   1367.5103              1380.3933              1388.1640
 Red. masses --      1.4478                 1.3649                 1.4932
 Frc consts  --      1.5952                 1.5324                 1.6953
 IR Inten    --      1.2792                25.9364                 1.2293

                     55                     56                     57
                      A                      A                      A
 Frequencies --   1393.2698              1397.8049              1405.2830
 Red. masses --      1.7433                 1.3319                 1.4541
 Frc consts  --      1.9938                 1.5333                 1.6919
 IR Inten    --     28.8372                 9.2105                 2.6269

                     58                     59                     60
                      A                      A                      A
 Frequencies --   1413.5698              1425.5162              1427.4381
 Red. masses --      1.3418                 1.3255                 1.2976
 Frc consts  --      1.5797                 1.5869                 1.5578
 IR Inten    --      2.3418                 7.8878                 0.6967

                     61                     62                     63
                      A                      A                      A
 Frequencies --   1450.2596              1475.3968              1476.9792
 Red. masses --      1.3067                 1.0866                 1.1003
 Frc consts  --      1.6192                 1.3936                 1.4142
 IR Inten    --     16.7227                 5.6154                 5.3639

                     64                     65                     66
                      A                      A                      A
 Frequencies --   1484.8609              1488.2366              1497.6337
 Red. masses --      1.1155                 1.0878                 1.1061
 Frc consts  --      1.4490                 1.4195                 1.4617
 IR Inten    --     13.7762                11.5248                16.5308

                     67                     68                     69
                      A                      A                      A
 Frequencies --   1498.4578              1512.0104              1523.1747
 Red. masses --      1.0912                 1.1023                 1.0925
 Frc consts  --      1.4436                 1.4848                 1.4934
 IR Inten    --      1.4352                 8.0785                 3.2096

                     70                     71                     72
                      A                      A                      A
 Frequencies --   3010.6668              3015.0219              3053.9752
 Red. masses --      1.0706                 1.0707                 1.0692
 Frc consts  --      5.7176                 5.7345                 5.8752
 IR Inten    --     76.3744                83.2709                35.0980

                     73                     74                     75
                      A                      A                      A
 Frequencies --   3060.5210              3061.8739              3067.4563
 Red. masses --      1.0702                 1.0785                 1.0636
 Frc consts  --      5.9060                 5.9571                 5.8963
 IR Inten    --     55.5940                13.7067                40.9410

                     76                     77                     78
                      A                      A                      A
 Frequencies --   3068.6070              3077.2324              3079.5360
 Red. masses --      1.0624                 1.0696                 1.0603
 Frc consts  --      5.8941                 5.9673                 5.9246
 IR Inten    --     30.1164                86.1427                27.9298

                     79                     80                     81
                      A                      A                      A
 Frequencies --   3117.5539              3117.8280              3119.4697
 Red. masses --      1.0996                 1.0967                 1.1003
 Frc consts  --      6.2966                 6.2813                 6.3082
 IR Inten    --     30.0265                36.6210                62.9834

                     82                     83                     84
                      A                      A                      A
 Frequencies --   3124.1668              3128.9688              3129.4730
 Red. masses --      1.0992                 1.0989                 1.0888
 Frc consts  --      6.3211                 6.3386                 6.2828
 IR Inten    --     62.9314                69.2579                42.8958

                     85                     86                     87
                      A                      A                      A
 Frequencies --   3133.4820              3137.4888              3150.0408
 Red. masses --      1.0992                 1.0926                 1.0931
 Frc consts  --      6.3588                 6.3367                 6.3904
 IR Inten    --     30.9973                48.2312                20.5020

 - Thermochemistry -
 -------------------
 Temperature   298.150 Kelvin.  Pressure   1.00000 Atm.
 Atom     1 has atomic number  6 and mass  12.00000

 Molecular mass:   186.12559 amu.
 Principal axes and moments of inertia in atomic units:
                           1         2         3
     Eigenvalues --  1003.857593886.548124134.03877
           X            0.99999   0.00240   0.00324
           Y           -0.00224   0.99885  -0.04789
           Z           -0.00335   0.04789   0.99885
 This molecule is an asymmetric top.
 Rotational symmetry number  1.
 Warning -- assumption of classical behavior for rotation
           may cause significant error
 Rotational temperatures (Kelvin)      0.08628     0.02229     0.02095
 Rotational constants (GHZ):           1.79781     0.46436     0.43656
    1 imaginary frequencies ignored.
 Zero-point vibrational energy     736667.1 (Joules/Mol)
                                  176.06766 (Kcal/Mol)
 Warning -- explicit consideration of  16 degrees of freedom as
           vibrations may cause significant error
 Vibrational temperatures:     74.38   139.94   177.15   273.23   282.41
          (Kelvin)            343.16   403.44   481.37   532.92   570.33
                              619.98   631.44   685.97   749.75   756.50
                              840.01  1002.54  1059.46  1160.86  1211.58
                             1221.20  1240.36  1257.21  1293.52  1297.99
                             1303.79  1335.63  1366.41  1416.33  1491.03
                             1500.75  1521.12  1526.38  1538.92  1559.11
                             1587.44  1655.11  1659.06  1666.81  1717.40
                             1740.28  1768.50  1789.37  1791.72  1858.28
                             1871.50  1905.65  1923.90  1951.75  1958.91
                             1967.54  1986.08  1997.26  2004.60  2011.13
                             2021.89  2033.81  2051.00  2053.77  2086.60
                             2122.77  2125.04  2136.38  2141.24  2154.76
                             2155.95  2175.45  2191.51  4331.68  4337.94
                             4393.99  4403.41  4405.35  4413.39  4415.04
                             4427.45  4430.77  4485.46  4485.86  4488.22
                             4494.98  4501.89  4502.61  4508.38  4514.15
                             4532.21

 Zero-point correction=                           0.280582 (Hartree/Particle)
 Thermal correction to Energy=                    0.291526
 Thermal correction to Enthalpy=                  0.292470
 Thermal correction to Gibbs Free Energy=         0.243715
 Sum of electronic and zero-point Energies=           -617.210992
 Sum of electronic and thermal Energies=              -617.200048
 Sum of electronic and thermal Enthalpies=            -617.199104
 Sum of electronic and thermal Free Energies=         -617.247860

                     E (Thermal)             CV                S
                      KCal/Mol        Cal/Mol-Kelvin    Cal/Mol-Kelvin
 Total                  182.935             44.759            102.615
 Electronic               0.000              0.000              0.000
 Translational            0.889              2.981             41.570
 Rotational               0.889              2.981             31.156
 Vibrational            181.158             38.797             29.889
 Vibration     1          0.596              1.977              4.751
 Vibration     2          0.603              1.951              3.508
 Vibration     3          0.610              1.930              3.051
 Vibration     4          0.633              1.854              2.229
 Vibration     5          0.636              1.845              2.168
 Vibration     6          0.656              1.782              1.814
 Vibration     7          0.680              1.710              1.531
 Vibration     8          0.716              1.606              1.238
 Vibration     9          0.742              1.533              1.078
 Vibration    10          0.763              1.478              0.976
 Vibration    11          0.792              1.403              0.856
 Vibration    12          0.799              1.385              0.830
 Vibration    13          0.833              1.302              0.719
 Vibration    14          0.876              1.203              0.607
 Vibration    15          0.881              1.193              0.597
 Vibration    16          0.941              1.066              0.478

 Optimization completed.
    -- Stationary point found.
 Normal termination of Gaussian 16 at Mon Nov  5 05:12:46 2018.
