 Gaussian 16, Revision A.03,
 Gaussian 16:  ES64L-G16RevA.03 25-Dec-2016

 ----------------------------------------------------------------------
 #M062X/6-311++G(2d,2p) opt=ModRedundant freq=noraman SCRF=(Solvent=Wat
 er)
 ----------------------------------------------------------------------

 ----------------------------
 D_1a_4a_L_PHI.inp_extract_14
 ----------------------------
 Symbolic Z-matrix:
 Charge =  0 Multiplicity = 1

 SCF Done:  E(RM062X) =  -617.498393975     A.U. after   12 cycles
 SCF Done:  E(RM062X) =  -617.499932183     A.U. after   10 cycles
 SCF Done:  E(RM062X) =  -617.500034343     A.U. after    9 cycles
 SCF Done:  E(RM062X) =  -617.500045713     A.U. after    8 cycles
 SCF Done:  E(RM062X) =  -617.500046556     A.U. after    7 cycles
 SCF Done:  E(RM062X) =  -617.500046535     A.U. after    6 cycles
 Optimization completed.
    -- Stationary point found.
 Normal termination of Gaussian 16 at Mon Nov  5 02:17:03 2018.

 ----------------------------------------------------------------------
 #N Geom=AllCheck Guess=TCheck SCRF=Check GenChk RM062X/6-311++G(2d,2p)
  Freq
 ----------------------------------------------------------------------

 Structure from the checkpoint file:  "D_1a_4a_L_PHI.inp_extract_14.chk"
 ----------------------------
 D_1a_4a_L_PHI.inp_extract_14
 ----------------------------
 Charge =  0 Multiplicity = 1

                         Standard orientation:
 ---------------------------------------------------------------------
 Center     Atomic      Atomic             Coordinates (Angstroms)
 Number     Number       Type             X           Y           Z
 ---------------------------------------------------------------------
      1          6           0        3.405903    0.100866   -0.835216
      2          6           0        1.121404   -0.442718    0.827148
      3          6           0       -2.016523   -0.693476    1.184591
      4          6           0        2.712096    1.257464   -0.118734
      5          6           0       -3.375085   -0.115083   -0.827314
      6          8           0       -2.426198    0.878481   -1.193176
      7          6           0        2.408005   -1.016837   -1.082318
      8          6           0       -1.084699    0.454035    0.796975
      9          6           0       -2.715419   -1.247354   -0.056287
     10          6           0       -1.824978    1.469856   -0.056749
     11          8           0        1.799086   -1.454111    0.135770
     12          8           0        0.020418   -0.027645    0.039163
     13          6           0        2.035313    0.735592    1.146584
     14          1           0        4.223754   -0.279852   -0.218672
     15          1           0        3.829357    0.421610   -1.787440
     16          1           0       -2.759956   -0.310522    1.888239
     17          1           0        3.423183    2.043978    0.131143
     18          1           0        1.960122    1.695133   -0.778946
     19          1           0        1.630714   -0.686163   -1.775694
     20          1           0        2.888421   -1.899337   -1.498390
     21          1           0       -1.987550   -1.738601   -0.703506
     22          1           0       -3.466693   -1.986677    0.221684
     23          1           0       -2.590715    1.958048    0.558161
     24          1           0       -1.130272    2.223616   -0.422688
     25          1           0        2.788005    0.391079    1.858868
     26          1           0        1.454624    1.517260    1.637214
     27          1           0        0.758420   -0.912185    1.744317
     28          1           0       -4.163097    0.346858   -0.218758
     29          1           0       -3.819988   -0.469390   -1.754734
     30          1           0       -1.454927   -1.472769    1.700537
     31          1           0       -0.725963    0.970042    1.692524
 ---------------------------------------------------------------------

 SCF Done:  E(RM062X) =  -617.500046535     A.U. after    1 cycles

 The electronic state is 1-A.
 Alpha  occ. eigenvalues --  -19.63150 -19.62899 -19.62734 -10.63609 -10.59016
 Alpha  occ. eigenvalues --  -10.58161 -10.57916 -10.57802 -10.53294 -10.53027
 Alpha  occ. eigenvalues --  -10.52978 -10.52917 -10.52866  -1.19994  -1.16544
 Alpha  occ. eigenvalues --   -1.13356  -0.90495  -0.89789  -0.87190  -0.84781
 Alpha  occ. eigenvalues --   -0.74572  -0.73376  -0.73235  -0.71892  -0.66522
 Alpha  occ. eigenvalues --   -0.62146  -0.59856  -0.58833  -0.57162  -0.55673
 Alpha  occ. eigenvalues --   -0.53927  -0.53131  -0.52678  -0.51481  -0.49663
 Alpha  occ. eigenvalues --   -0.47462  -0.47128  -0.46072  -0.45602  -0.45338
 Alpha  occ. eigenvalues --   -0.43810  -0.42842  -0.41742  -0.40017  -0.39272
 Alpha  occ. eigenvalues --   -0.38353  -0.37891  -0.36611  -0.34782  -0.32987
 Alpha  occ. eigenvalues --   -0.31607
 Alpha virt. eigenvalues --   -0.00166   0.00822   0.00856   0.01057   0.02251
 Alpha virt. eigenvalues --    0.02458   0.02684   0.03362   0.03484   0.04586
 Alpha virt. eigenvalues --    0.04736   0.04855   0.05332   0.05734   0.07199

 Mulliken charges:
               1
     1  C   -0.402216
     2  C   -0.166878
     3  C   -0.325407
     4  C   -0.326004
     5  C   -0.221779
     6  O   -0.298564
     7  C   -0.222593
     8  C   -0.000959
     9  C   -0.305207
    10  C   -0.386552
    11  O   -0.293696
    12  O   -0.294236
    13  C   -0.111862
    14  H    0.166406
    15  H    0.167823
    16  H    0.218585
    17  H    0.180381
    18  H    0.163995
    19  H    0.175409
    20  H    0.211203
    21  H    0.168997
    22  H    0.180203
    23  H    0.186680
    24  H    0.191971
    25  H    0.194890
    26  H    0.156869
    27  H    0.278858
    28  H    0.141955
    29  H    0.201693
    30  H    0.146755
    31  H    0.223279
 Sum of Mulliken charges =   0.00000

 Dipole moment (field-independent basis, Debye):
    X=             -0.2639    Y=              1.3634    Z=              2.7974  Tot=              3.1231
 Quadrupole moment (field-independent basis, Debye-Ang):
   XX=            -71.5315   YY=            -82.1205   ZZ=            -79.1525
   XY=              5.2718   XZ=             -6.2470   YZ=              4.0385

  Exact polarizability: 170.760   1.552 156.634  -2.041   2.668 156.004
 Approx polarizability: 145.722  -0.527 141.139  -1.600   1.283 144.205

                      1                      2                      3
                      A                      A                      A
 Frequencies --     37.4934                41.2544                71.7588
 Red. masses --      3.5821                 4.0009                 3.7265
 Frc consts  --      0.0030                 0.0040                 0.0113
 IR Inten    --      1.7650                 3.0296                 1.3901

                      4                      5                      6
                      A                      A                      A
 Frequencies --    146.0048               169.0199               229.3016
 Red. masses --      3.3566                 3.1236                 2.5828
 Frc consts  --      0.0422                 0.0526                 0.0800
 IR Inten    --      1.6654                 3.7037                 2.4400

                      7                      8                      9
                      A                      A                      A
 Frequencies --    247.7746               282.3358               334.2651
 Red. masses --      2.9255                 2.3659                 2.0046
 Frc consts  --      0.1058                 0.1111                 0.1320
 IR Inten    --      1.7391                 1.9796                 1.5006

                     10                     11                     12
                      A                      A                      A
 Frequencies --    403.4806               412.3704               417.2489
 Red. masses --      2.5602                 2.5435                 2.2211
 Frc consts  --      0.2456                 0.2548                 0.2278
 IR Inten    --      6.1343                15.8220                 4.2130

                     13                     14                     15
                      A                      A                      A
 Frequencies --    440.6055               503.5213               519.1319
 Red. masses --      2.8407                 3.6794                 4.0091
 Frc consts  --      0.3249                 0.5496                 0.6366
 IR Inten    --      5.2057                10.7457                 8.2091

                     16                     17                     18
                      A                      A                      A
 Frequencies --    523.8336               541.2644               666.5075
 Red. masses --      2.2463                 2.2709                 2.4429
 Frc consts  --      0.3632                 0.3920                 0.6394
 IR Inten    --      2.8654                 7.3942                 9.1772

                     19                     20                     21
                      A                      A                      A
 Frequencies --    744.7338               831.7782               840.6555
 Red. masses --      2.4739                 1.7460                 2.7144
 Frc consts  --      0.8084                 0.7117                 1.1302
 IR Inten    --      0.9153                 1.6999                 4.3055

                     22                     23                     24
                      A                      A                      A
 Frequencies --    852.8173               872.1438               882.9793
 Red. masses --      3.4444                 1.7562                 2.0750
 Frc consts  --      1.4759                 0.7871                 0.9532
 IR Inten    --      0.9491                 9.3457                 9.6073

                     25                     26                     27
                      A                      A                      A
 Frequencies --    898.5740               903.0376               913.6936
 Red. masses --      2.5009                 2.4007                 2.3850
 Frc consts  --      1.1897                 1.1535                 1.1731
 IR Inten    --     18.0000                49.4197                34.6857

                     28                     29                     30
                      A                      A                      A
 Frequencies --    931.4682               949.0461              1011.8562
 Red. masses --      1.8586                 1.5718                 1.9721
 Frc consts  --      0.9501                 0.8341                 1.1896
 IR Inten    --     14.1527                 1.4998                60.6297

                     31                     32                     33
                      A                      A                      A
 Frequencies --   1030.8969              1039.6808              1057.6006
 Red. masses --      1.9649                 2.3109                 2.1009
 Frc consts  --      1.2304                 1.4717                 1.3845
 IR Inten    --     19.1352                64.8049                35.8940

                     34                     35                     36
                      A                      A                      A
 Frequencies --   1069.3055              1072.3282              1078.6223
 Red. masses --      1.6905                 2.1237                 2.3238
 Frc consts  --      1.1388                 1.4388                 1.5929
 IR Inten    --     11.4806               279.0558                98.9400

                     37                     38                     39
                      A                      A                      A
 Frequencies --   1101.8075              1143.7060              1156.5968
 Red. masses --      1.6684                 2.3262                 2.7675
 Frc consts  --      1.1933                 1.7927                 2.1812
 IR Inten    --     34.7478               156.1613               106.0062

                     40                     41                     42
                      A                      A                      A
 Frequencies --   1174.4831              1182.6034              1212.7376
 Red. masses --      2.6672                 2.8364                 1.4498
 Frc consts  --      2.1677                 2.3372                 1.2563
 IR Inten    --     38.6178                40.8324                21.1004

                     43                     44                     45
                      A                      A                      A
 Frequencies --   1227.0348              1242.0036              1248.5133
 Red. masses --      1.3506                 1.8223                 1.8952
 Frc consts  --      1.1980                 1.6562                 1.7405
 IR Inten    --     32.7748                87.2397                56.8928

                     46                     47                     48
                      A                      A                      A
 Frequencies --   1285.8117              1305.2533              1320.2866
 Red. masses --      1.2027                 1.1430                 1.1484
 Frc consts  --      1.1715                 1.1474                 1.1794
 IR Inten    --     24.9576                 4.2434                 6.2812

                     49                     50                     51
                      A                      A                      A
 Frequencies --   1338.4461              1355.9604              1362.4047
 Red. masses --      1.2399                 1.3297                 1.5137
 Frc consts  --      1.3087                 1.4404                 1.6554
 IR Inten    --     14.3277                27.2545                 3.3289

                     52                     53                     54
                      A                      A                      A
 Frequencies --   1368.5922              1381.8338              1386.9602
 Red. masses --      1.3862                 1.4883                 1.4179
 Frc consts  --      1.5298                 1.6744                 1.6071
 IR Inten    --      3.7426                19.5997                 7.6066

                     55                     56                     57
                      A                      A                      A
 Frequencies --   1391.5447              1397.5290              1403.1312
 Red. masses --      1.5603                 1.4189                 1.3378
 Frc consts  --      1.7801                 1.6328                 1.5519
 IR Inten    --     12.4390                36.9685                 4.1684

                     58                     59                     60
                      A                      A                      A
 Frequencies --   1410.6549              1424.7653              1429.1819
 Red. masses --      1.4438                 1.3209                 1.3799
 Frc consts  --      1.6928                 1.5798                 1.6606
 IR Inten    --      9.5233                11.6644                 4.8892

                     61                     62                     63
                      A                      A                      A
 Frequencies --   1444.7547              1474.7271              1477.3738
 Red. masses --      1.3403                 1.0902                 1.1030
 Frc consts  --      1.6483                 1.3970                 1.4184
 IR Inten    --     11.2196                 6.5558                 5.4307

                     64                     65                     66
                      A                      A                      A
 Frequencies --   1482.7236              1485.2257              1490.2322
 Red. masses --      1.0856                 1.1142                 1.0891
 Frc consts  --      1.4062                 1.4481                 1.4251
 IR Inten    --     12.1021                15.7950                 2.9770

                     67                     68                     69
                      A                      A                      A
 Frequencies --   1494.6008              1510.4397              1513.2028
 Red. masses --      1.1078                 1.1004                 1.0938
 Frc consts  --      1.4580                 1.4791                 1.4757
 IR Inten    --     16.5620                 7.2263                 4.2353

                     70                     71                     72
                      A                      A                      A
 Frequencies --   3012.2198              3024.2115              3053.5415
 Red. masses --      1.0707                 1.0692                 1.0802
 Frc consts  --      5.7240                 5.7613                 5.9340
 IR Inten    --     76.5441                61.6183                30.0200

                     73                     74                     75
                      A                      A                      A
 Frequencies --   3059.3344              3065.5440              3066.2356
 Red. masses --      1.0680                 1.0703                 1.0643
 Frc consts  --      5.8895                 5.9259                 5.8957
 IR Inten    --     31.3094                14.9465                60.6483

                     76                     77                     78
                      A                      A                      A
 Frequencies --   3068.5191              3071.1198              3078.4689
 Red. masses --      1.0671                 1.0629                 1.0624
 Frc consts  --      5.9197                 5.9066                 5.9321
 IR Inten    --     23.0967                26.9689                24.5733

                     79                     80                     81
                      A                      A                      A
 Frequencies --   3079.6042              3111.6508              3113.8964
 Red. masses --      1.0754                 1.0996                 1.0970
 Frc consts  --      6.0091                 6.2729                 6.2669
 IR Inten    --    107.8504                39.0150                38.3625

                     82                     83                     84
                      A                      A                      A
 Frequencies --   3116.5179              3121.5955              3123.8034
 Red. masses --      1.1005                 1.1047                 1.1030
 Frc consts  --      6.2975                 6.3422                 6.3415
 IR Inten    --     48.7118                65.9225                52.3583

                     85                     86                     87
                      A                      A                      A
 Frequencies --   3130.7790              3132.7595              3136.9559
 Red. masses --      1.0948                 1.0955                 1.1003
 Frc consts  --      6.3227                 6.3348                 6.3793
 IR Inten    --     48.6997                33.3366                45.2752

 - Thermochemistry -
 -------------------
 Temperature   298.150 Kelvin.  Pressure   1.00000 Atm.
 Atom     1 has atomic number  6 and mass  12.00000

 Molecular mass:   186.12559 amu.
 Principal axes and moments of inertia in atomic units:
                           1         2         3
     Eigenvalues --  1100.040123952.866794095.34736
           X            0.99983   0.01611  -0.00890
           Y           -0.01512   0.99472   0.10154
           Z            0.01048  -0.10138   0.99479
 This molecule is an asymmetric top.
 Rotational symmetry number  1.
 Warning -- assumption of classical behavior for rotation
           may cause significant error
 Rotational temperatures (Kelvin)      0.07874     0.02191     0.02115
 Rotational constants (GHZ):           1.64061     0.45657     0.44068
 Zero-point vibrational energy     736662.0 (Joules/Mol)
                                  176.06645 (Kcal/Mol)
 Warning -- explicit consideration of  17 degrees of freedom as
           vibrations may cause significant error
 Vibrational temperatures:     53.94    59.36   103.24   210.07   243.18
          (Kelvin)            329.91   356.49   406.22   480.93   580.52
                              593.31   600.33   633.93   724.45   746.92
                              753.68   778.76   958.96  1071.51  1196.74
                             1209.52  1227.01  1254.82  1270.41  1292.85
                             1299.27  1314.60  1340.17  1365.47  1455.84
                             1483.23  1495.87  1521.65  1538.49  1542.84
                             1551.90  1585.26  1645.54  1664.08  1689.82
                             1701.50  1744.86  1765.43  1786.97  1796.33
                             1850.00  1877.97  1899.60  1925.73  1950.92
                             1960.20  1969.10  1988.15  1995.53  2002.12
                             2010.73  2018.79  2029.62  2049.92  2056.27
                             2078.68  2121.80  2125.61  2133.31  2136.91
                             2144.11  2150.40  2173.19  2177.16  4333.91
                             4351.17  4393.37  4401.70  4410.63  4411.63
                             4414.91  4418.66  4429.23  4430.86  4476.97
                             4480.20  4483.97  4491.28  4494.46  4504.49
                             4507.34  4513.38

 Zero-point correction=                           0.280580 (Hartree/Particle)
 Thermal correction to Energy=                    0.292350
 Thermal correction to Enthalpy=                  0.293294
 Thermal correction to Gibbs Free Energy=         0.241725
 Sum of electronic and zero-point Energies=           -617.219467
 Sum of electronic and thermal Energies=              -617.207697
 Sum of electronic and thermal Enthalpies=            -617.206753
 Sum of electronic and thermal Free Energies=         -617.258321

                     E (Thermal)             CV                S
                      KCal/Mol        Cal/Mol-Kelvin    Cal/Mol-Kelvin
 Total                  183.452             46.603            108.536
 Electronic               0.000              0.000              0.000
 Translational            0.889              2.981             41.570
 Rotational               0.889              2.981             31.255
 Vibrational            181.675             40.641             35.711
 Vibration     1          0.594              1.982              5.387
 Vibration     2          0.594              1.981              5.198
 Vibration     3          0.598              1.967              4.105
 Vibration     4          0.617              1.907              2.724
 Vibration     5          0.625              1.881              2.446
 Vibration     6          0.652              1.796              1.884
 Vibration     7          0.661              1.766              1.746
 Vibration     8          0.681              1.706              1.519
 Vibration     9          0.716              1.607              1.239
 Vibration    10          0.769              1.463              0.950
 Vibration    11          0.776              1.443              0.918
 Vibration    12          0.780              1.433              0.901
 Vibration    13          0.801              1.382              0.825
 Vibration    14          0.859              1.242              0.649
 Vibration    15          0.874              1.208              0.612
 Vibration    16          0.879              1.197              0.601
 Vibration    17          0.896              1.159              0.563

 Optimization completed.
    -- Stationary point found.
 Normal termination of Gaussian 16 at Mon Nov  5 03:12:26 2018.
