 Gaussian 16, Revision B.01,
 Gaussian 16:  ES64L-G16RevB.01 20-Dec-2017

 ----------------------------------------------------------------------
 #M062X/6-311++G(2d,2p) opt=ModRedundant freq=noraman SCRF=(SMD,solvent
 =water)
 ----------------------------------------------------------------------

 --------------------------------
 4c1_b1_e3_4c1_PSI.inp_extract_13
 --------------------------------
 Symbolic Z-matrix:
 Charge =  0 Multiplicity = 1

 SCF Done:  E(RM062X) =  -617.504235115     A.U. after   12 cycles
 SCF Done:  E(RM062X) =  -617.505848941     A.U. after   10 cycles
 SCF Done:  E(RM062X) =  -617.506186884     A.U. after   11 cycles
 SCF Done:  E(RM062X) =  -617.506317693     A.U. after    9 cycles
 SCF Done:  E(RM062X) =  -617.506321992     A.U. after    9 cycles
 SCF Done:  E(RM062X) =  -617.506322314     A.U. after    7 cycles
 SCF Done:  E(RM062X) =  -617.506322187     A.U. after    7 cycles
 Optimization completed.
    -- Stationary point found.
 Normal termination of Gaussian 16 at Sat Mar  9 14:58:17 2019.

 ----------------------------------------------------------------------
 #N Geom=AllCheck Guess=TCheck SCRF=Check GenChk RM062X/6-311++G(2d,2p)
  Freq
 ----------------------------------------------------------------------

 Structure from the checkpoint file:  "4c1_b1_e3_4c1_PSI.inp_extract_13.chk"
 --------------------------------
 4c1_b1_e3_4c1_PSI.inp_extract_13
 --------------------------------
 Charge =  0 Multiplicity = 1

                         Standard orientation:
 ---------------------------------------------------------------------
 Center     Atomic      Atomic             Coordinates (Angstroms)
 Number     Number       Type             X           Y           Z
 ---------------------------------------------------------------------
      1          6           0       -1.804214   -0.015053   -1.280962
      2          6           0       -2.973983    0.076065    1.319251
      3          6           0        2.447859   -1.267077   -0.116350
      4          6           0       -1.254004   -0.894227   -0.165914
      5          6           0       -1.486895   -0.224637    1.180277
      6          8           0        1.144320    0.737022   -0.466604
      7          6           0        3.607514   -0.428886    0.422185
      8          8           0       -3.437819    0.910807    0.264193
      9          6           0        3.536786    0.989295   -0.140115
     10          6           0        1.138597   -0.549370    0.137833
     11          6           0        2.155852    1.572246    0.101423
     12          6           0       -3.270096    0.282894   -1.003521
     13          8           0        0.102685   -1.297480   -0.424349
     14          1           0       -1.245550    0.919798   -1.328480
     15          1           0       -1.710915   -0.523987   -2.241032
     16          1           0       -3.174474    0.607646    2.246582
     17          1           0       -3.550566   -0.855661    1.319966
     18          1           0        2.549244   -1.412568   -1.194324
     19          1           0        2.413561   -2.246040    0.361123
     20          1           0       -1.811593   -1.834133   -0.172887
     21          1           0       -1.172525   -0.871299    2.000482
     22          1           0       -0.932154    0.713708    1.244582
     23          1           0        4.558283   -0.898463    0.173489
     24          1           0        3.542716   -0.386479    1.512664
     25          1           0        3.729791    0.973917   -1.215208
     26          1           0        4.284826    1.632569    0.324107
     27          1           0        0.986879   -0.417012    1.215373
     28          1           0        1.968910    1.677603    1.176353
     29          1           0        2.040169    2.547523   -0.365888
     30          1           0       -3.855812   -0.643201   -1.022724
     31          1           0       -3.678786    0.965789   -1.744745
 ---------------------------------------------------------------------

 SCF Done:  E(RM062X) =  -617.506322187     A.U. after    1 cycles

 The electronic state is 1-A.
 Alpha  occ. eigenvalues --  -19.63438 -19.62922 -19.62867 -10.63109 -10.58574
 Alpha  occ. eigenvalues --  -10.57718 -10.57554 -10.57467 -10.52695 -10.52515
 Alpha  occ. eigenvalues --  -10.52380 -10.52223 -10.52196  -1.19693  -1.16173
 Alpha  occ. eigenvalues --   -1.13427  -0.90693  -0.89287  -0.86152  -0.84709
 Alpha  occ. eigenvalues --   -0.75076  -0.72732  -0.72537  -0.69741  -0.65515
 Alpha  occ. eigenvalues --   -0.64777  -0.59510  -0.56928  -0.56447  -0.54386
 Alpha  occ. eigenvalues --   -0.53985  -0.52827  -0.52119  -0.51112  -0.50054
 Alpha  occ. eigenvalues --   -0.49516  -0.46568  -0.45464  -0.44819  -0.43831
 Alpha  occ. eigenvalues --   -0.42751  -0.41399  -0.40323  -0.39959  -0.39511
 Alpha  occ. eigenvalues --   -0.38549  -0.37228  -0.36496  -0.34352  -0.32934
 Alpha  occ. eigenvalues --   -0.32365
 Alpha virt. eigenvalues --    0.00467   0.01291   0.01395   0.01434   0.02743
 Alpha virt. eigenvalues --    0.02907   0.02973   0.03907   0.04087   0.05075
 Alpha virt. eigenvalues --    0.05159   0.05368   0.05904   0.05998   0.07600

 Mulliken charges:
               1
     1  C   -0.270946
     2  C   -0.456568
     3  C   -0.342828
     4  C   -0.014594
     5  C   -0.134591
     6  O   -0.397426
     7  C   -0.404803
     8  O   -0.367572
     9  C   -0.371055
    10  C   -0.003418
    11  C   -0.126999
    12  C   -0.259476
    13  O   -0.425937
    14  H    0.208244
    15  H    0.175594
    16  H    0.204302
    17  H    0.178153
    18  H    0.194258
    19  H    0.185854
    20  H    0.298854
    21  H    0.185954
    22  H    0.240516
    23  H    0.202757
    24  H    0.172491
    25  H    0.162303
    26  H    0.181446
    27  H    0.262135
    28  H    0.152849
    29  H    0.198498
    30  H    0.163873
    31  H    0.208132
 Sum of Mulliken charges =   0.00000

 Dipole moment (field-independent basis, Debye):
    X=              2.0793    Y=             -0.8355    Z=              2.4279  Tot=              3.3040
 Quadrupole moment (field-independent basis, Debye-Ang):
   XX=            -75.4043   YY=            -82.3474   ZZ=            -76.2342
   XY=              9.3876   XZ=              3.7638   YZ=             -1.5923

  Exact polarizability: 183.064   2.490 172.078   1.290   0.292 172.617
 Approx polarizability: 145.148   1.850 143.924   1.112   0.441 143.962

                      1                      2                      3
                      A                      A                      A
 Frequencies --     53.5945                72.6365                83.2647
 Red. masses --      3.3969                 3.6182                 4.1308
 Frc consts  --      0.0057                 0.0112                 0.0169
 IR Inten    --      0.1282                 3.8168                 2.3681

                      4                      5                      6
                      A                      A                      A
 Frequencies --    162.9462               194.0332               245.1316
 Red. masses --      3.6761                 3.1727                 2.4261
 Frc consts  --      0.0575                 0.0704                 0.0859
 IR Inten    --      9.2291                 2.5643                 7.0851

                      7                      8                      9
                      A                      A                      A
 Frequencies --    256.7004               284.8543               333.6553
 Red. masses --      1.8921                 3.4731                 2.3523
 Frc consts  --      0.0735                 0.1660                 0.1543
 IR Inten    --      2.8382                 2.7617                 9.0213

                     10                     11                     12
                      A                      A                      A
 Frequencies --    367.3208               383.7551               432.1946
 Red. masses --      2.3750                 2.8720                 3.3034
 Frc consts  --      0.1888                 0.2492                 0.3636
 IR Inten    --     15.3055                 5.8468                 1.9389

                     13                     14                     15
                      A                      A                      A
 Frequencies --    449.1661               470.1443               490.8770
 Red. masses --      2.4478                 3.8409                 3.1206
 Frc consts  --      0.2910                 0.5002                 0.4430
 IR Inten    --      2.7354                 1.0689                 0.9966

                     16                     17                     18
                      A                      A                      A
 Frequencies --    538.3409               555.2101               599.6478
 Red. masses --      2.3104                 2.6061                 2.1068
 Frc consts  --      0.3945                 0.4733                 0.4463
 IR Inten    --     13.3470                 3.0842                 1.8898

                     19                     20                     21
                      A                      A                      A
 Frequencies --    671.1725               831.2213               835.8089
 Red. masses --      3.4045                 1.8388                 1.5535
 Frc consts  --      0.9036                 0.7485                 0.6394
 IR Inten    --     33.9186                15.0254                 1.8856

                     22                     23                     24
                      A                      A                      A
 Frequencies --    840.3315               862.7108               878.6149
 Red. masses --      2.2679                 1.9393                 2.2213
 Frc consts  --      0.9436                 0.8504                 1.0103
 IR Inten    --      3.6603                21.6766                33.0541

                     25                     26                     27
                      A                      A                      A
 Frequencies --    896.4744               931.9293               937.0674
 Red. masses --      2.2332                 2.3090                 1.8390
 Frc consts  --      1.0574                 1.1815                 0.9514
 IR Inten    --     25.6109                46.8270                 3.7873

                     28                     29                     30
                      A                      A                      A
 Frequencies --    957.6048               983.0447               999.7620
 Red. masses --      2.2139                 1.7674                 1.4291
 Frc consts  --      1.1961                 1.0063                 0.8416
 IR Inten    --      7.0057                43.7593                15.3259

                     31                     32                     33
                      A                      A                      A
 Frequencies --   1014.1088              1032.4762              1056.5806
 Red. masses --      2.0241                 2.1466                 1.5329
 Frc consts  --      1.2265                 1.3482                 1.0083
 IR Inten    --     10.5417                31.9020                84.4321

                     34                     35                     36
                      A                      A                      A
 Frequencies --   1086.3234              1097.4249              1118.1707
 Red. masses --      3.0892                 2.4688                 3.9820
 Frc consts  --      2.1479                 1.7518                 2.9334
 IR Inten    --     59.7045                50.1317               251.1887

                     37                     38                     39
                      A                      A                      A
 Frequencies --   1129.7754              1158.0193              1170.7500
 Red. masses --      3.2686                 2.3070                 2.3803
 Frc consts  --      2.4581                 1.8228                 1.9222
 IR Inten    --     75.6697                 8.0568                30.1539

                     40                     41                     42
                      A                      A                      A
 Frequencies --   1185.6840              1196.4017              1203.5469
 Red. masses --      2.5025                 1.3647                 1.5536
 Frc consts  --      2.0728                 1.1509                 1.3259
 IR Inten    --     98.7157                24.4668                26.7994

                     43                     44                     45
                      A                      A                      A
 Frequencies --   1216.6911              1238.0948              1268.4608
 Red. masses --      3.3188                 1.6927                 1.3487
 Frc consts  --      2.8947                 1.5288                 1.2786
 IR Inten    --    362.4817                38.1073                25.3611

                     46                     47                     48
                      A                      A                      A
 Frequencies --   1277.8192              1280.3146              1314.2906
 Red. masses --      1.2333                 1.3016                 1.1943
 Frc consts  --      1.1865                 1.2571                 1.2154
 IR Inten    --      2.2931                19.3764                24.3453

                     49                     50                     51
                      A                      A                      A
 Frequencies --   1328.2216              1337.8637              1350.8449
 Red. masses --      1.4243                 1.2967                 1.3335
 Frc consts  --      1.4805                 1.3674                 1.4337
 IR Inten    --     54.1092                 5.9153                 4.2365

                     52                     53                     54
                      A                      A                      A
 Frequencies --   1366.6662              1371.6359              1384.6078
 Red. masses --      1.4200                 1.3248                 1.4988
 Frc consts  --      1.5626                 1.4685                 1.6930
 IR Inten    --      1.9059                42.8353                 3.3565

                     55                     56                     57
                      A                      A                      A
 Frequencies --   1388.5612              1398.6694              1404.7467
 Red. masses --      1.2918                 1.2090                 1.4758
 Frc consts  --      1.4675                 1.3935                 1.7158
 IR Inten    --      1.7516                17.4326                13.5348

                     58                     59                     60
                      A                      A                      A
 Frequencies --   1418.8121              1426.1982              1432.6743
 Red. masses --      1.3004                 1.3439                 1.3217
 Frc consts  --      1.5423                 1.6105                 1.5984
 IR Inten    --      6.2591                42.1953                19.4773

                     61                     62                     63
                      A                      A                      A
 Frequencies --   1442.8654              1470.4250              1470.9212
 Red. masses --      1.5122                 1.1033                 1.1154
 Frc consts  --      1.8549                 1.4055                 1.4219
 IR Inten    --     42.4479                 1.3792                 7.4034

                     64                     65                     66
                      A                      A                      A
 Frequencies --   1472.6606              1483.3419              1489.0876
 Red. masses --      1.1020                 1.1217                 1.1270
 Frc consts  --      1.4081                 1.4542                 1.4724
 IR Inten    --      9.3222                 7.4274                27.8710

                     67                     68                     69
                      A                      A                      A
 Frequencies --   1501.9019              1503.2859              1510.3768
 Red. masses --      1.0824                 1.0965                 1.1005
 Frc consts  --      1.4385                 1.4599                 1.4791
 IR Inten    --      2.8288                 5.5382                 8.1257

                     70                     71                     72
                      A                      A                      A
 Frequencies --   3033.9449              3034.5307              3036.0720
 Red. masses --      1.0711                 1.0701                 1.0702
 Frc consts  --      5.8088                 5.8058                 5.8121
 IR Inten    --     53.7650                53.6258                86.1798

                     73                     74                     75
                      A                      A                      A
 Frequencies --   3041.0428              3061.0265              3064.2857
 Red. masses --      1.0815                 1.0688                 1.0826
 Frc consts  --      5.8930                 5.9003                 5.9894
 IR Inten    --     76.5808                23.8742                31.9423

                     76                     77                     78
                      A                      A                      A
 Frequencies --   3068.8316              3073.0200              3075.2333
 Red. masses --      1.0618                 1.0617                 1.0613
 Frc consts  --      5.8918                 5.9071                 5.9135
 IR Inten    --     41.6019                33.3129                57.3600

                     79                     80                     81
                      A                      A                      A
 Frequencies --   3086.7458              3118.8533              3122.1065
 Red. masses --      1.0603                 1.0975                 1.1007
 Frc consts  --      5.9523                 6.2898                 6.3217
 IR Inten    --     23.2244                41.2350                59.3689

                     82                     83                     84
                      A                      A                      A
 Frequencies --   3125.9793              3129.7244              3137.2836
 Red. masses --      1.1044                 1.1037                 1.1018
 Frc consts  --      6.3586                 6.3696                 6.3896
 IR Inten    --     37.2581                53.7698                42.2075

                     85                     86                     87
                      A                      A                      A
 Frequencies --   3141.3560              3142.9386              3144.3989
 Red. masses --      1.0957                 1.0968                 1.0974
 Frc consts  --      6.3704                 6.3833                 6.3926
 IR Inten    --     45.6949                25.0925                43.2174

 - Thermochemistry -
 -------------------
 Temperature   298.150 Kelvin.  Pressure   1.00000 Atm.
 Atom     1 has atomic number  6 and mass  12.00000

 Molecular mass:   186.12559 amu.
 Principal axes and moments of inertia in atomic units:
                           1         2         3
     Eigenvalues --   957.237634426.871484584.65368
           X            0.99996   0.00798   0.00416
           Y           -0.00785   0.99953  -0.02978
           Z           -0.00440   0.02975   0.99955
 This molecule is an asymmetric top.
 Rotational symmetry number  1.
 Warning -- assumption of classical behavior for rotation
           may cause significant error
 Rotational temperatures (Kelvin)      0.09048     0.01957     0.01889
 Rotational constants (GHZ):           1.88536     0.40768     0.39365
 Zero-point vibrational energy     737114.3 (Joules/Mol)
                                  176.17455 (Kcal/Mol)
 Warning -- explicit consideration of  18 degrees of freedom as
           vibrations may cause significant error
 Vibrational temperatures:     77.11   104.51   119.80   234.44   279.17
          (Kelvin)            352.69   369.33   409.84   480.06   528.49
                              552.14   621.83   646.25   676.43   706.26
                              774.55   798.82   862.76   965.67  1195.94
                             1202.54  1209.05  1241.25  1264.13  1289.83
                             1340.84  1348.23  1377.78  1414.38  1438.43
                             1459.08  1485.50  1520.18  1562.98  1578.95
                             1608.80  1625.49  1666.13  1684.45  1705.93
                             1721.36  1731.64  1750.55  1781.34  1825.03
                             1838.50  1842.09  1890.97  1911.01  1924.89
                             1943.56  1966.33  1973.48  1992.14  1997.83
                             2012.37  2021.12  2041.35  2051.98  2061.30
                             2075.96  2115.61  2116.33  2118.83  2134.20
                             2142.46  2160.90  2162.89  2173.10  4365.17
                             4366.01  4368.23  4375.38  4404.13  4408.82
                             4415.36  4421.39  4424.57  4441.14  4487.33
                             4492.01  4497.59  4502.98  4513.85  4519.71
                             4521.99  4524.09

 Zero-point correction=                           0.280752 (Hartree/Particle)
 Thermal correction to Energy=                    0.292408
 Thermal correction to Enthalpy=                  0.293352
 Thermal correction to Gibbs Free Energy=         0.242868
 Sum of electronic and zero-point Energies=           -617.225570
 Sum of electronic and thermal Energies=              -617.213914
 Sum of electronic and thermal Enthalpies=            -617.212970
 Sum of electronic and thermal Free Energies=         -617.263455

                     E (Thermal)             CV                S
                      KCal/Mol        Cal/Mol-Kelvin    Cal/Mol-Kelvin
 Total                  183.489             46.784            106.254
 Electronic               0.000              0.000              0.000
 Translational            0.889              2.981             41.570
 Rotational               0.889              2.981             31.341
 Vibrational            181.711             40.822             33.342
 Vibration     1          0.596              1.976              4.680
 Vibration     2          0.599              1.967              4.081
 Vibration     3          0.600              1.961              3.812
 Vibration     4          0.623              1.888              2.515
 Vibration     5          0.635              1.848              2.189
 Vibration     6          0.660              1.771              1.765
 Vibration     7          0.666              1.751              1.684
 Vibration     8          0.683              1.702              1.504
 Vibration     9          0.715              1.608              1.242
 Vibration    10          0.740              1.539              1.091
 Vibration    11          0.753              1.505              1.024
 Vibration    12          0.793              1.400              0.852
 Vibration    13          0.808              1.363              0.798
 Vibration    14          0.827              1.316              0.737
 Vibration    15          0.847              1.270              0.681
 Vibration    16          0.893              1.165              0.569
 Vibration    17          0.911              1.128              0.533
 Vibration    18          0.958              1.033              0.450

 Optimization completed.
    -- Stationary point found.
 Normal termination of Gaussian 16 at Sat Mar  9 16:02:06 2019.
