 Gaussian 16, Revision B.01,
 Gaussian 16:  ES64L-G16RevB.01 20-Dec-2017

 ----------------------------------------------------------------------
 #M062X/6-311++G(2d,2p) opt=ModRedundant freq=noraman SCRF=(SMD,solvent
 =water)
 ----------------------------------------------------------------------

 --------------------------------
 4c1_b1_e3_4c1_PSI.inp_extract_19
 --------------------------------
 Symbolic Z-matrix:
 Charge =  0 Multiplicity = 1

 SCF Done:  E(RM062X) =  -617.507937040     A.U. after   12 cycles
 SCF Done:  E(RM062X) =  -617.509556272     A.U. after   10 cycles
 SCF Done:  E(RM062X) =  -617.509673138     A.U. after    9 cycles
 SCF Done:  E(RM062X) =  -617.509697018     A.U. after    8 cycles
 SCF Done:  E(RM062X) =  -617.509698616     A.U. after    7 cycles
 SCF Done:  E(RM062X) =  -617.509698753     A.U. after    7 cycles
 Optimization completed.
    -- Stationary point found.
 Normal termination of Gaussian 16 at Sat Mar  9 16:26:27 2019.

 ----------------------------------------------------------------------
 #N Geom=AllCheck Guess=TCheck SCRF=Check GenChk RM062X/6-311++G(2d,2p)
  Freq
 ----------------------------------------------------------------------

 Structure from the checkpoint file:  "4c1_b1_e3_4c1_PSI.inp_extract_19.chk"
 --------------------------------
 4c1_b1_e3_4c1_PSI.inp_extract_19
 --------------------------------
 Charge =  0 Multiplicity = 1

                         Standard orientation:
 ---------------------------------------------------------------------
 Center     Atomic      Atomic             Coordinates (Angstroms)
 Number     Number       Type             X           Y           Z
 ---------------------------------------------------------------------
      1          6           0       -2.325534   -1.267674   -0.433355
      2          6           0       -2.846079    1.375012    0.503730
      3          6           0        2.304534   -1.371734    0.108239
      4          6           0       -1.202581   -0.460102    0.190151
      5          6           0       -1.458907    1.026303   -0.015729
      6          8           0        1.518250    0.785441   -0.637318
      7          6           0        3.605690   -0.738900    0.601469
      8          8           0       -3.854116    0.600822   -0.137715
      9          6           0        3.890441    0.545184   -0.173687
     10          6           0        1.184029   -0.353373    0.145765
     11          6           0        2.674693    1.453138   -0.127899
     12          6           0       -3.665738   -0.789462    0.103128
     13          8           0        0.022415   -0.910090   -0.398312
     14          1           0       -2.300060   -1.135504   -1.517305
     15          1           0       -2.199184   -2.327926   -0.212514
     16          1           0       -3.083385    2.418019    0.307385
     17          1           0       -2.898833    1.204652    1.585056
     18          1           0        2.411822   -1.712287   -0.924530
     19          1           0        2.022620   -2.226270    0.723053
     20          1           0       -1.162001   -0.669172    1.265237
     21          1           0       -0.717604    1.627893    0.510879
     22          1           0       -1.395430    1.258025   -1.081221
     23          1           0        4.429332   -1.444717    0.502442
     24          1           0        3.507989   -0.501947    1.664337
     25          1           0        4.116191    0.309622   -1.216159
     26          1           0        4.748885    1.072644    0.243150
     27          1           0        0.997687   -0.022369    1.176599
     28          1           0        2.477570    1.773350    0.901737
     29          1           0        2.807844    2.339136   -0.744554
     30          1           0       -3.731530   -0.977990    1.180526
     31          1           0       -4.487588   -1.304886   -0.388227
 ---------------------------------------------------------------------

 SCF Done:  E(RM062X) =  -617.509698753     A.U. after    1 cycles

 The electronic state is 1-A.
 Alpha  occ. eigenvalues --  -19.63564 -19.62913 -19.62813 -10.63202 -10.58566
 Alpha  occ. eigenvalues --  -10.57647 -10.57612 -10.57452 -10.52543 -10.52512
 Alpha  occ. eigenvalues --  -10.52400 -10.52384 -10.52214  -1.19823  -1.16183
 Alpha  occ. eigenvalues --   -1.13650  -0.90694  -0.89412  -0.86149  -0.84541
 Alpha  occ. eigenvalues --   -0.74575  -0.73205  -0.72209  -0.69806  -0.65976
 Alpha  occ. eigenvalues --   -0.64443  -0.59704  -0.57839  -0.56084  -0.54360
 Alpha  occ. eigenvalues --   -0.54296  -0.52681  -0.52217  -0.51226  -0.49636
 Alpha  occ. eigenvalues --   -0.49031  -0.46462  -0.45801  -0.44938  -0.44256
 Alpha  occ. eigenvalues --   -0.42384  -0.41428  -0.40505  -0.39825  -0.39148
 Alpha  occ. eigenvalues --   -0.38310  -0.37156  -0.37051  -0.34833  -0.33474
 Alpha  occ. eigenvalues --   -0.31934
 Alpha virt. eigenvalues --    0.00521   0.01254   0.01370   0.01475   0.02695
 Alpha virt. eigenvalues --    0.02873   0.02987   0.03975   0.04127   0.04716
 Alpha virt. eigenvalues --    0.05145   0.05426   0.05776   0.06312   0.07455

 Mulliken charges:
               1
     1  C   -0.220915
     2  C   -0.445856
     3  C   -0.296138
     4  C   -0.242353
     5  C   -0.112561
     6  O   -0.412496
     7  C   -0.401665
     8  O   -0.368648
     9  C   -0.386772
    10  C    0.150284
    11  C   -0.109930
    12  C   -0.279742
    13  O   -0.396274
    14  H    0.197085
    15  H    0.180824
    16  H    0.207927
    17  H    0.178009
    18  H    0.200969
    19  H    0.170489
    20  H    0.280045
    21  H    0.173168
    22  H    0.237017
    23  H    0.198733
    24  H    0.174431
    25  H    0.163782
    26  H    0.182821
    27  H    0.236776
    28  H    0.153084
    29  H    0.203168
    30  H    0.157338
    31  H    0.227400
 Sum of Mulliken charges =  -0.00000

 Dipole moment (field-independent basis, Debye):
    X=              2.8715    Y=             -0.2010    Z=              4.3151  Tot=              5.1871
 Quadrupole moment (field-independent basis, Debye-Ang):
   XX=            -79.5833   YY=            -76.8371   ZZ=            -80.5009
   XY=              6.4690   XZ=             -1.2583   YZ=              0.7180

  Exact polarizability: 184.460   4.437 176.278  -0.293   1.136 167.575
 Approx polarizability: 145.999   2.911 144.359   0.583   0.603 142.478

                      1                      2                      3
                      A                      A                      A
 Frequencies --     47.8980                59.1715                76.1995
 Red. masses --      3.2928                 4.6118                 3.4093
 Frc consts  --      0.0045                 0.0095                 0.0117
 IR Inten    --      0.4723                 0.6311                 0.6171

                      4                      5                      6
                      A                      A                      A
 Frequencies --    155.2044               216.5930               247.9831
 Red. masses --      3.4055                 3.7447                 1.9862
 Frc consts  --      0.0483                 0.1035                 0.0720
 IR Inten    --      7.4418                 5.4148                 3.2326

                      7                      8                      9
                      A                      A                      A
 Frequencies --    253.0676               265.2926               300.6244
 Red. masses --      2.1310                 3.8878                 2.8956
 Frc consts  --      0.0804                 0.1612                 0.1542
 IR Inten    --     12.6943                 0.2517                 4.0229

                     10                     11                     12
                      A                      A                      A
 Frequencies --    360.3001               393.2072               435.5410
 Red. masses --      2.0596                 2.3069                 4.1923
 Frc consts  --      0.1575                 0.2101                 0.4686
 IR Inten    --      2.1654                11.5851                 4.7321

                     13                     14                     15
                      A                      A                      A
 Frequencies --    456.4709               474.1463               506.2784
 Red. masses --      2.6807                 2.9669                 2.5246
 Frc consts  --      0.3291                 0.3930                 0.3813
 IR Inten    --      1.8704                 0.4937                 3.1733

                     16                     17                     18
                      A                      A                      A
 Frequencies --    523.0342               549.1226               605.9670
 Red. masses --      2.7767                 2.7665                 2.3885
 Frc consts  --      0.4476                 0.4915                 0.5167
 IR Inten    --      3.3359                 0.4814                15.9334

                     19                     20                     21
                      A                      A                      A
 Frequencies --    656.5301               833.2549               833.6108
 Red. masses --      2.5414                 1.5228                 1.8208
 Frc consts  --      0.6454                 0.6229                 0.7455
 IR Inten    --     28.7759                 1.3845                 9.2739

                     22                     23                     24
                      A                      A                      A
 Frequencies --    843.3096               863.1359               883.5150
 Red. masses --      2.4886                 1.9641                 1.8778
 Frc consts  --      1.0427                 0.8621                 0.8636
 IR Inten    --     16.2757                10.0089                12.0694

                     25                     26                     27
                      A                      A                      A
 Frequencies --    898.0797               933.2503               937.7112
 Red. masses --      2.5172                 2.4234                 1.7715
 Frc consts  --      1.1962                 1.2436                 0.9178
 IR Inten    --     40.1577                47.8863                 0.4828

                     28                     29                     30
                      A                      A                      A
 Frequencies --    960.7038               994.4455              1005.7508
 Red. masses --      2.1082                 1.7100                 1.4503
 Frc consts  --      1.1464                 0.9963                 0.8643
 IR Inten    --     10.5190                44.0054                24.1540

                     31                     32                     33
                      A                      A                      A
 Frequencies --   1016.7971              1035.5458              1056.1456
 Red. masses --      2.0590                 2.1483                 1.5497
 Frc consts  --      1.2542                 1.3573                 1.0185
 IR Inten    --     12.3019                39.8031               102.8952

                     34                     35                     36
                      A                      A                      A
 Frequencies --   1088.5691              1105.2005              1117.9269
 Red. masses --      2.5796                 2.9800                 4.5107
 Frc consts  --      1.8010                 2.1446                 3.3214
 IR Inten    --     66.4825                36.1588               294.6265

                     37                     38                     39
                      A                      A                      A
 Frequencies --   1132.8496              1156.6451              1172.5066
 Red. masses --      3.1512                 2.3196                 2.7522
 Frc consts  --      2.3827                 1.8284                 2.2292
 IR Inten    --     50.7712                 7.8778                65.5611

                     40                     41                     42
                      A                      A                      A
 Frequencies --   1185.6240              1195.0169              1206.8377
 Red. masses --      1.9358                 1.4245                 1.7313
 Frc consts  --      1.6033                 1.1985                 1.4857
 IR Inten    --     64.4397                32.6692               109.1368

                     43                     44                     45
                      A                      A                      A
 Frequencies --   1225.2357              1238.7068              1272.4748
 Red. masses --      3.2575                 1.6649                 1.3184
 Frc consts  --      2.8812                 1.5052                 1.2577
 IR Inten    --    293.6246                38.1210                11.9501

                     46                     47                     48
                      A                      A                      A
 Frequencies --   1277.6202              1282.7242              1314.1031
 Red. masses --      1.2473                 1.2915                 1.2060
 Frc consts  --      1.1996                 1.2520                 1.2271
 IR Inten    --     14.6410                 3.6426                33.2868

                     49                     50                     51
                      A                      A                      A
 Frequencies --   1323.2061              1340.9949              1348.7172
 Red. masses --      1.3643                 1.3179                 1.2946
 Frc consts  --      1.4073                 1.3963                 1.3875
 IR Inten    --     10.3403                 8.8496                 3.5123

                     52                     53                     54
                      A                      A                      A
 Frequencies --   1361.1333              1368.0496              1384.5163
 Red. masses --      1.1643                 1.4435                 1.4671
 Frc consts  --      1.2709                 1.5918                 1.6570
 IR Inten    --     16.5581                 1.0699                 8.1819

                     55                     56                     57
                      A                      A                      A
 Frequencies --   1389.7821              1392.1172              1405.4925
 Red. masses --      1.3038                 1.3057                 1.4504
 Frc consts  --      1.4837                 1.4908                 1.6881
 IR Inten    --     20.6522                 7.4048                90.8893

                     58                     59                     60
                      A                      A                      A
 Frequencies --   1409.7726              1418.7211              1429.9128
 Red. masses --      1.5904                 1.3548                 1.3444
 Frc consts  --      1.8623                 1.6066                 1.6196
 IR Inten    --     25.4236                17.4461                 4.2760

                     61                     62                     63
                      A                      A                      A
 Frequencies --   1454.5032              1466.5842              1472.2455
 Red. masses --      1.3790                 1.1019                 1.1130
 Frc consts  --      1.7189                 1.3964                 1.4214
 IR Inten    --     24.1666                 5.8311                 4.3316

                     64                     65                     66
                      A                      A                      A
 Frequencies --   1473.9990              1481.8989              1490.1352
 Red. masses --      1.1325                 1.1361                 1.1299
 Frc consts  --      1.4497                 1.4699                 1.4782
 IR Inten    --     10.5745                 8.5861                26.6716

                     67                     68                     69
                      A                      A                      A
 Frequencies --   1500.5958              1504.8369              1509.2368
 Red. masses --      1.0829                 1.0972                 1.1013
 Frc consts  --      1.4367                 1.4640                 1.4780
 IR Inten    --      3.4391                 5.0576                 8.5109

                     70                     71                     72
                      A                      A                      A
 Frequencies --   3015.4619              3033.1560              3034.3552
 Red. masses --      1.0834                 1.0705                 1.0806
 Frc consts  --      5.8042                 5.8029                 5.8618
 IR Inten    --     54.6064                65.9430                 6.8222

                     73                     74                     75
                      A                      A                      A
 Frequencies --   3036.2000              3037.8722              3060.6172
 Red. masses --      1.0714                 1.0716                 1.0687
 Frc consts  --      5.8193                 5.8265                 5.8980
 IR Inten    --     68.4111               128.9778                23.2019

                     76                     77                     78
                      A                      A                      A
 Frequencies --   3069.4252              3070.9078              3072.5789
 Red. masses --      1.0619                 1.0614                 1.0607
 Frc consts  --      5.8946                 5.8974                 5.8999
 IR Inten    --     31.2029                55.0169                14.2959

                     79                     80                     81
                      A                      A                      A
 Frequencies --   3075.4426              3118.7794              3121.9776
 Red. masses --      1.0613                 1.0972                 1.1013
 Frc consts  --      5.9141                 6.2880                 6.3241
 IR Inten    --     52.2124                41.5427                58.5125

                     82                     83                     84
                      A                      A                      A
 Frequencies --   3127.2309              3127.6556              3128.2322
 Red. masses --      1.1029                 1.1035                 1.1040
 Frc consts  --      6.3549                 6.3600                 6.3651
 IR Inten    --     32.6838                61.9297                44.5049

                     85                     86                     87
                      A                      A                      A
 Frequencies --   3140.6928              3142.7163              3144.9241
 Red. masses --      1.0956                 1.0954                 1.0959
 Frc consts  --      6.3672                 6.3741                 6.3861
 IR Inten    --     40.2752                39.1523                34.7414

 - Thermochemistry -
 -------------------
 Temperature   298.150 Kelvin.  Pressure   1.00000 Atm.
 Atom     1 has atomic number  6 and mass  12.00000

 Molecular mass:   186.12559 amu.
 Principal axes and moments of inertia in atomic units:
                           1         2         3
     Eigenvalues --   834.101694809.898715367.11078
           X            0.99999   0.00414   0.00026
           Y           -0.00414   0.99997   0.00615
           Z           -0.00023  -0.00616   0.99998
 This molecule is an asymmetric top.
 Rotational symmetry number  1.
 Warning -- assumption of classical behavior for rotation
           may cause significant error
 Rotational temperatures (Kelvin)      0.10384     0.01801     0.01614
 Rotational constants (GHZ):           2.16369     0.37521     0.33626
 Zero-point vibrational energy     736508.5 (Joules/Mol)
                                  176.02976 (Kcal/Mol)
 Warning -- explicit consideration of  18 degrees of freedom as
           vibrations may cause significant error
 Vibrational temperatures:     68.91    85.13   109.63   223.30   311.63
          (Kelvin)            356.79   364.11   381.70   432.53   518.39
                              565.74   626.65   656.76   682.19   728.42
                              752.53   790.06   871.85   944.60  1198.87
                             1199.38  1213.33  1241.86  1271.18  1292.14
                             1342.74  1349.16  1382.24  1430.79  1447.05
                             1462.94  1489.92  1519.56  1566.21  1590.14
                             1608.45  1629.92  1664.15  1686.98  1705.85
                             1719.36  1736.37  1762.84  1782.22  1830.81
                             1838.21  1845.55  1890.70  1903.80  1929.39
                             1940.50  1958.37  1968.32  1992.01  1999.59
                             2002.95  2022.19  2028.35  2041.22  2057.33
                             2092.71  2110.09  2118.23  2120.76  2132.12
                             2143.97  2159.02  2165.12  2171.46  4338.58
                             4364.04  4365.76  4368.41  4370.82  4403.55
                             4416.22  4418.35  4420.76  4424.88  4487.23
                             4491.83  4499.39  4500.00  4500.83  4518.76
                             4521.67  4524.84

 Zero-point correction=                           0.280521 (Hartree/Particle)
 Thermal correction to Energy=                    0.292259
 Thermal correction to Enthalpy=                  0.293204
 Thermal correction to Gibbs Free Energy=         0.242226
 Sum of electronic and zero-point Energies=           -617.229177
 Sum of electronic and thermal Energies=              -617.217439
 Sum of electronic and thermal Enthalpies=            -617.216495
 Sum of electronic and thermal Free Energies=         -617.267473

                     E (Thermal)             CV                S
                      KCal/Mol        Cal/Mol-Kelvin    Cal/Mol-Kelvin
 Total                  183.396             46.810            107.291
 Electronic               0.000              0.000              0.000
 Translational            0.889              2.981             41.570
 Rotational               0.889              2.981             31.444
 Vibrational            181.618             40.848             34.278
 Vibration     1          0.595              1.978              4.902
 Vibration     2          0.597              1.974              4.485
 Vibration     3          0.599              1.965              3.986
 Vibration     4          0.620              1.897              2.607
 Vibration     5          0.645              1.816              1.987
 Vibration     6          0.662              1.766              1.745
 Vibration     7          0.664              1.758              1.709
 Vibration     8          0.671              1.737              1.627
 Vibration     9          0.693              1.673              1.413
 Vibration    10          0.735              1.554              1.121
 Vibration    11          0.760              1.485              0.988
 Vibration    12          0.796              1.393              0.841
 Vibration    13          0.815              1.347              0.776
 Vibration    14          0.831              1.307              0.726
 Vibration    15          0.862              1.236              0.643
 Vibration    16          0.878              1.199              0.603
 Vibration    17          0.904              1.142              0.546
 Vibration    18          0.965              1.019              0.440

 Optimization completed.
    -- Stationary point found.
 Normal termination of Gaussian 16 at Sat Mar  9 17:30:11 2019.
