 Gaussian 16, Revision B.01,
 Gaussian 16:  ES64L-G16RevB.01 20-Dec-2017

 ----------------------------------------------------------------------
 #M062X/6-311++G(2d,2p) opt=ModRedundant freq=noraman SCRF=(SMD,solvent
 =water)
 ----------------------------------------------------------------------

 --------------------------------
 4c1_b1_e3_4c1_PSI.inp_extract_14
 --------------------------------
 Symbolic Z-matrix:
 Charge =  0 Multiplicity = 1

 SCF Done:  E(RM062X) =  -617.503561183     A.U. after   12 cycles
 SCF Done:  E(RM062X) =  -617.505071747     A.U. after   10 cycles
 SCF Done:  E(RM062X) =  -617.505391656     A.U. after   10 cycles
 SCF Done:  E(RM062X) =  -617.505524817     A.U. after    9 cycles
 SCF Done:  E(RM062X) =  -617.505534892     A.U. after    9 cycles
 SCF Done:  E(RM062X) =  -617.505535678     A.U. after    7 cycles
 SCF Done:  E(RM062X) =  -617.505535827     A.U. after    7 cycles
 Optimization completed.
    -- Stationary point found.
 Normal termination of Gaussian 16 at Sat Mar  9 15:04:27 2019.

 ----------------------------------------------------------------------
 #N Geom=AllCheck Guess=TCheck SCRF=Check GenChk RM062X/6-311++G(2d,2p)
  Freq
 ----------------------------------------------------------------------

 Structure from the checkpoint file:  "4c1_b1_e3_4c1_PSI.inp_extract_14.chk"
 --------------------------------
 4c1_b1_e3_4c1_PSI.inp_extract_14
 --------------------------------
 Charge =  0 Multiplicity = 1

                         Standard orientation:
 ---------------------------------------------------------------------
 Center     Atomic      Atomic             Coordinates (Angstroms)
 Number     Number       Type             X           Y           Z
 ---------------------------------------------------------------------
      1          6           0       -1.945158   -0.621970   -1.144519
      2          6           0       -2.903902    0.688279    1.193866
      3          6           0        2.438293   -1.258657    0.277702
      4          6           0       -1.259207   -0.860711    0.192584
      5          6           0       -1.419963    0.357062    1.090932
      6          8           0        1.189691    0.567287   -0.692875
      7          6           0        3.621198   -0.323266    0.531434
      8          8           0       -3.477645    0.935558   -0.084310
      9          6           0        3.586836    0.848499   -0.447335
     10          6           0        1.148930   -0.464399    0.287661
     11          6           0        2.222256    1.513558   -0.409944
     12          6           0       -3.392464   -0.218180   -0.915298
     13          8           0        0.090736   -1.313136   -0.033034
     14          1           0       -1.423923    0.173387   -1.681681
     15          1           0       -1.908486   -1.527926   -1.750192
     16          1           0       -3.053818    1.590553    1.782127
     17          1           0       -3.442940   -0.134991    1.675654
     18          1           0        2.532245   -1.738313   -0.699319
     19          1           0        2.380493   -2.036707    1.038537
     20          1           0       -1.756308   -1.701921    0.683490
     21          1           0       -1.035910    0.162852    2.092631
     22          1           0       -0.891366    1.216676    0.675425
     23          1           0        4.558667   -0.871480    0.447961
     24          1           0        3.560611    0.060845    1.553198
     25          1           0        3.776889    0.491867   -1.462205
     26          1           0        4.353230    1.584692   -0.203295
     27          1           0        1.003320    0.002874    1.267364
     28          1           0        2.040458    1.956457    0.576278
     29          1           0        2.131716    2.295467   -1.160592
     30          1           0       -3.945068   -1.038692   -0.443873
     31          1           0       -3.882986    0.035398   -1.852253
 ---------------------------------------------------------------------

 SCF Done:  E(RM062X) =  -617.505535827     A.U. after    1 cycles

 The electronic state is 1-A.
 Alpha  occ. eigenvalues --  -19.63380 -19.62942 -19.62798 -10.63116 -10.58621
 Alpha  occ. eigenvalues --  -10.57737 -10.57570 -10.57434 -10.52738 -10.52516
 Alpha  occ. eigenvalues --  -10.52389 -10.52305 -10.52213  -1.19644  -1.16215
 Alpha  occ. eigenvalues --   -1.13343  -0.90700  -0.89310  -0.86222  -0.84653
 Alpha  occ. eigenvalues --   -0.75069  -0.72876  -0.72475  -0.69708  -0.65376
 Alpha  occ. eigenvalues --   -0.64831  -0.59601  -0.57019  -0.56349  -0.54430
 Alpha  occ. eigenvalues --   -0.54145  -0.52764  -0.52303  -0.51158  -0.49928
 Alpha  occ. eigenvalues --   -0.49377  -0.46548  -0.45563  -0.44735  -0.43685
 Alpha  occ. eigenvalues --   -0.42882  -0.41409  -0.40396  -0.39771  -0.39570
 Alpha  occ. eigenvalues --   -0.38536  -0.37237  -0.36592  -0.34503  -0.32810
 Alpha  occ. eigenvalues --   -0.32369
 Alpha virt. eigenvalues --    0.00462   0.01279   0.01414   0.01425   0.02723
 Alpha virt. eigenvalues --    0.02890   0.02973   0.03894   0.04081   0.05047
 Alpha virt. eigenvalues --    0.05147   0.05349   0.05914   0.06004   0.07573

 Mulliken charges:
               1
     1  C   -0.225768
     2  C   -0.486509
     3  C   -0.349700
     4  C   -0.043552
     5  C   -0.137328
     6  O   -0.399903
     7  C   -0.402251
     8  O   -0.367398
     9  C   -0.385557
    10  C    0.031189
    11  C   -0.110715
    12  C   -0.255892
    13  O   -0.422287
    14  H    0.193354
    15  H    0.174997
    16  H    0.205351
    17  H    0.179011
    18  H    0.193005
    19  H    0.184164
    20  H    0.288672
    21  H    0.181102
    22  H    0.251334
    23  H    0.202635
    24  H    0.174033
    25  H    0.162648
    26  H    0.181366
    27  H    0.263964
    28  H    0.150484
    29  H    0.198751
    30  H    0.162661
    31  H    0.208138
 Sum of Mulliken charges =  -0.00000

 Dipole moment (field-independent basis, Debye):
    X=              2.0935    Y=             -0.0835    Z=              3.0454  Tot=              3.6965
 Quadrupole moment (field-independent basis, Debye-Ang):
   XX=            -75.3297   YY=            -82.0144   ZZ=            -76.4111
   XY=              9.9339   XZ=              0.0848   YZ=              1.1333

  Exact polarizability: 183.758   3.161 172.721   0.351   1.395 171.539
 Approx polarizability: 145.462   2.344 144.169   0.417   0.708 143.361

                      1                      2                      3
                      A                      A                      A
 Frequencies --     33.2462                65.6439                82.5385
 Red. masses --      3.6675                 3.6697                 3.7963
 Frc consts  --      0.0024                 0.0093                 0.0152
 IR Inten    --      3.2563                 0.0398                 2.9101

                      4                      5                      6
                      A                      A                      A
 Frequencies --    161.5786               198.0630               246.0039
 Red. masses --      3.7110                 3.0503                 2.2076
 Frc consts  --      0.0571                 0.0705                 0.0787
 IR Inten    --     10.6053                 1.4512                 2.8326

                      7                      8                      9
                      A                      A                      A
 Frequencies --    253.8871               284.9897               334.5991
 Red. masses --      2.1289                 3.3026                 2.5604
 Frc consts  --      0.0809                 0.1580                 0.1689
 IR Inten    --      6.6183                 2.8174                10.0528

                     10                     11                     12
                      A                      A                      A
 Frequencies --    366.0348               380.2116               431.4764
 Red. masses --      2.4701                 2.5632                 3.2499
 Frc consts  --      0.1950                 0.2183                 0.3565
 IR Inten    --     11.9542                 5.2824                 1.7698

                     13                     14                     15
                      A                      A                      A
 Frequencies --    450.9391               473.0062               491.4403
 Red. masses --      2.4596                 3.7758                 3.1567
 Frc consts  --      0.2947                 0.4977                 0.4492
 IR Inten    --      3.4317                 1.4399                 1.1356

                     16                     17                     18
                      A                      A                      A
 Frequencies --    534.0789               552.6864               599.9283
 Red. masses --      2.3805                 2.6664                 2.0933
 Frc consts  --      0.4001                 0.4799                 0.4439
 IR Inten    --     10.1412                 2.0367                 1.7663

                     19                     20                     21
                      A                      A                      A
 Frequencies --    664.4762               830.1398               834.9198
 Red. masses --      3.1901                 1.8288                 1.5237
 Frc consts  --      0.8299                 0.7425                 0.6258
 IR Inten    --     38.9164                15.9660                 3.2650

                     22                     23                     24
                      A                      A                      A
 Frequencies --    838.0294               864.3097               879.1027
 Red. masses --      2.3790                 2.0082                 2.1141
 Frc consts  --      0.9844                 0.8839                 0.9626
 IR Inten    --      3.1358                17.4614                36.5528

                     25                     26                     27
                      A                      A                      A
 Frequencies --    900.2056               928.0082               940.1414
 Red. masses --      2.2940                 2.4003                 1.8063
 Frc consts  --      1.0953                 1.2179                 0.9406
 IR Inten    --     30.3290                51.3767                 3.0619

                     28                     29                     30
                      A                      A                      A
 Frequencies --    957.5708               983.1832              1001.0966
 Red. masses --      2.2349                 1.7787                 1.4629
 Frc consts  --      1.2074                 1.0130                 0.8638
 IR Inten    --      6.9917                47.0445                19.4924

                     31                     32                     33
                      A                      A                      A
 Frequencies --   1013.5859              1035.8754              1054.8614
 Red. masses --      1.9926                 2.2055                 1.5556
 Frc consts  --      1.2061                 1.3943                 1.0198
 IR Inten    --      8.2284                29.3050               101.4887

                     34                     35                     36
                      A                      A                      A
 Frequencies --   1080.8230              1096.6873              1114.9476
 Red. masses --      3.1236                 2.3759                 4.1965
 Frc consts  --      2.1499                 1.6836                 3.0736
 IR Inten    --     54.9593                34.5191               283.0315

                     37                     38                     39
                      A                      A                      A
 Frequencies --   1132.8894              1157.9249              1170.3761
 Red. masses --      3.3693                 2.2887                 2.4834
 Frc consts  --      2.5478                 1.8080                 2.0043
 IR Inten    --     69.1704                11.0617                27.6290

                     40                     41                     42
                      A                      A                      A
 Frequencies --   1188.0486              1197.7565              1205.2724
 Red. masses --      2.2592                 1.3773                 1.6128
 Frc consts  --      1.8788                 1.1642                 1.3804
 IR Inten    --     82.1940                22.9163                81.3126

                     43                     44                     45
                      A                      A                      A
 Frequencies --   1214.1818              1238.1265              1272.7417
 Red. masses --      3.2637                 1.6688                 1.3151
 Frc consts  --      2.8348                 1.5073                 1.2551
 IR Inten    --    330.6420                34.5499                22.2100

                     46                     47                     48
                      A                      A                      A
 Frequencies --   1278.9876              1281.8679              1315.7153
 Red. masses --      1.2334                 1.2833                 1.1913
 Frc consts  --      1.1887                 1.2424                 1.2150
 IR Inten    --      1.3326                12.2915                24.9869

                     49                     50                     51
                      A                      A                      A
 Frequencies --   1328.5382              1341.8720              1352.6696
 Red. masses --      1.4074                 1.3100                 1.3340
 Frc consts  --      1.4636                 1.3897                 1.4381
 IR Inten    --     47.3157                 6.6341                 4.1155

                     52                     53                     54
                      A                      A                      A
 Frequencies --   1367.4063              1371.1007              1385.1922
 Red. masses --      1.4251                 1.2644                 1.4852
 Frc consts  --      1.5700                 1.4005                 1.6790
 IR Inten    --      0.2705                28.8711                 5.5161

                     55                     56                     57
                      A                      A                      A
 Frequencies --   1390.7180              1394.4924              1408.6740
 Red. masses --      1.2655                 1.2290                 1.4850
 Frc consts  --      1.4421                 1.4081                 1.7362
 IR Inten    --      5.9034                17.2392                19.2069

                     58                     59                     60
                      A                      A                      A
 Frequencies --   1418.6842              1423.7064              1430.0946
 Red. masses --      1.3368                 1.3662                 1.3291
 Frc consts  --      1.5852                 1.6315                 1.6015
 IR Inten    --     11.3871                50.9739                 2.7296

                     61                     62                     63
                      A                      A                      A
 Frequencies --   1445.4399              1468.0593              1470.6207
 Red. masses --      1.4662                 1.1095                 1.1012
 Frc consts  --      1.8049                 1.4089                 1.4032
 IR Inten    --     39.5240                 3.9344                 6.4256

                     64                     65                     66
                      A                      A                      A
 Frequencies --   1473.3962              1482.7433              1491.1394
 Red. masses --      1.1160                 1.1180                 1.1242
 Frc consts  --      1.4275                 1.4482                 1.4728
 IR Inten    --      8.6828                 9.3928                26.1637

                     67                     68                     69
                      A                      A                      A
 Frequencies --   1498.8157              1504.7871              1507.4889
 Red. masses --      1.0826                 1.0954                 1.1027
 Frc consts  --      1.4328                 1.4614                 1.4765
 IR Inten    --      3.2359                 5.3479                 7.3769

                     70                     71                     72
                      A                      A                      A
 Frequencies --   3033.9059              3035.4635              3037.7639
 Red. masses --      1.0702                 1.0702                 1.0701
 Frc consts  --      5.8039                 5.8098                 5.8179
 IR Inten    --     68.2959                66.6466                74.2348

                     73                     74                     75
                      A                      A                      A
 Frequencies --   3052.6364              3057.4344              3061.3035
 Red. masses --      1.0817                 1.0833                 1.0683
 Frc consts  --      5.9389                 5.9662                 5.8986
 IR Inten    --     40.0278                45.0837                26.2718

                     76                     77                     78
                      A                      A                      A
 Frequencies --   3069.1460              3073.3189              3075.3871
 Red. masses --      1.0615                 1.0617                 1.0611
 Frc consts  --      5.8914                 5.9084                 5.9129
 IR Inten    --     40.9387                42.9708                38.8737

                     79                     80                     81
                      A                      A                      A
 Frequencies --   3082.5427              3117.3058              3120.7754
 Red. masses --      1.0602                 1.0970                 1.1021
 Frc consts  --      5.9354                 6.2805                 6.3241
 IR Inten    --     36.5133                39.9351                61.4081

                     82                     83                     84
                      A                      A                      A
 Frequencies --   3127.5928              3129.2176              3132.6167
 Red. masses --      1.1037                 1.1039                 1.1045
 Frc consts  --      6.3610                 6.3688                 6.3861
 IR Inten    --     43.3020                48.0232                45.7897

                     85                     86                     87
                      A                      A                      A
 Frequencies --   3139.5741              3142.7013              3144.8293
 Red. masses --      1.0958                 1.0956                 1.0964
 Frc consts  --      6.3641                 6.3756                 6.3887
 IR Inten    --     39.8940                37.4295                35.4774

 - Thermochemistry -
 -------------------
 Temperature   298.150 Kelvin.  Pressure   1.00000 Atm.
 Atom     1 has atomic number  6 and mass  12.00000

 Molecular mass:   186.12559 amu.
 Principal axes and moments of inertia in atomic units:
                           1         2         3
     Eigenvalues --   939.761724499.896824684.44641
           X            0.99996   0.00852   0.00158
           Y           -0.00857   0.99947   0.03135
           Z           -0.00131  -0.03136   0.99951
 This molecule is an asymmetric top.
 Rotational symmetry number  1.
 Warning -- assumption of classical behavior for rotation
           may cause significant error
 Rotational temperatures (Kelvin)      0.09217     0.01925     0.01849
 Rotational constants (GHZ):           1.92042     0.40106     0.38526
 Zero-point vibrational energy     736907.8 (Joules/Mol)
                                  176.12519 (Kcal/Mol)
 Warning -- explicit consideration of  18 degrees of freedom as
           vibrations may cause significant error
 Vibrational temperatures:     47.83    94.45   118.75   232.48   284.97
          (Kelvin)            353.94   365.29   410.04   481.41   526.64
                              547.04   620.80   648.80   680.55   707.07
                              768.42   795.19   863.16   956.03  1194.39
                             1201.26  1205.74  1243.55  1264.83  1295.20
                             1335.20  1352.65  1377.73  1414.58  1440.35
                             1458.32  1490.39  1517.71  1555.06  1577.89
                             1604.16  1629.98  1666.00  1683.91  1709.34
                             1723.30  1734.12  1746.94  1781.39  1831.19
                             1840.18  1844.32  1893.02  1911.47  1930.65
                             1946.19  1967.39  1972.71  1992.98  2000.93
                             2006.36  2026.77  2041.17  2048.40  2057.59
                             2079.67  2112.21  2115.90  2119.89  2133.34
                             2145.42  2156.46  2165.05  2168.94  4365.11
                             4367.35  4370.66  4392.06  4398.97  4404.53
                             4415.82  4421.82  4424.80  4435.09  4485.11
                             4490.10  4499.91  4502.25  4507.14  4517.15
                             4521.65  4524.71

 Zero-point correction=                           0.280673 (Hartree/Particle)
 Thermal correction to Energy=                    0.292394
 Thermal correction to Enthalpy=                  0.293338
 Thermal correction to Gibbs Free Energy=         0.242285
 Sum of electronic and zero-point Energies=           -617.224862
 Sum of electronic and thermal Energies=              -617.213142
 Sum of electronic and thermal Enthalpies=            -617.212198
 Sum of electronic and thermal Free Energies=         -617.263251

                     E (Thermal)             CV                S
                      KCal/Mol        Cal/Mol-Kelvin    Cal/Mol-Kelvin
 Total                  183.480             46.815            107.449
 Electronic               0.000              0.000              0.000
 Translational            0.889              2.981             41.570
 Rotational               0.889              2.981             31.361
 Vibrational            181.702             40.854             34.519
 Vibration     1          0.594              1.983              5.626
 Vibration     2          0.597              1.971              4.280
 Vibration     3          0.600              1.961              3.830
 Vibration     4          0.622              1.890              2.531
 Vibration     5          0.637              1.843              2.151
 Vibration     6          0.660              1.769              1.759
 Vibration     7          0.665              1.756              1.703
 Vibration     8          0.683              1.702              1.504
 Vibration     9          0.716              1.606              1.238
 Vibration    10          0.739              1.542              1.096
 Vibration    11          0.750              1.512              1.038
 Vibration    12          0.793              1.402              0.854
 Vibration    13          0.810              1.359              0.793
 Vibration    14          0.830              1.310              0.729
 Vibration    15          0.847              1.269              0.680
 Vibration    16          0.889              1.175              0.578
 Vibration    17          0.908              1.134              0.539
 Vibration    18          0.958              1.032              0.450

 Optimization completed.
    -- Stationary point found.
 Normal termination of Gaussian 16 at Sat Mar  9 16:09:39 2019.
