 Gaussian 16, Revision B.01,
 Gaussian 16:  ES64L-G16RevB.01 20-Dec-2017

 ----------------------------------------------------------------------
 #M062X/6-311++G(2d,2p) opt=ModRedundant freq=noraman SCRF=(SMD,solvent
 =water)
 ----------------------------------------------------------------------

 -------------------------------
 4c1_b1_e3_4c1_PSI.inp_extract_3
 -------------------------------
 Symbolic Z-matrix:
 Charge =  0 Multiplicity = 1

 SCF Done:  E(RM062X) =  -617.507793535     A.U. after   12 cycles
 SCF Done:  E(RM062X) =  -617.509373188     A.U. after   10 cycles
 SCF Done:  E(RM062X) =  -617.509529867     A.U. after   10 cycles
 SCF Done:  E(RM062X) =  -617.509569191     A.U. after    9 cycles
 SCF Done:  E(RM062X) =  -617.509574725     A.U. after    9 cycles
 SCF Done:  E(RM062X) =  -617.509575752     A.U. after    8 cycles
 SCF Done:  E(RM062X) =  -617.509575924     A.U. after    7 cycles
 Optimization completed.
    -- Stationary point found.
 Normal termination of Gaussian 16 at Sat Mar  9 12:22:49 2019.

 ----------------------------------------------------------------------
 #N Geom=AllCheck Guess=TCheck SCRF=Check GenChk RM062X/6-311++G(2d,2p)
  Freq
 ----------------------------------------------------------------------

 Structure from the checkpoint file:  "4c1_b1_e3_4c1_PSI.inp_extract_3.chk"
 -------------------------------
 4c1_b1_e3_4c1_PSI.inp_extract_3
 -------------------------------
 Charge =  0 Multiplicity = 1

                         Standard orientation:
 ---------------------------------------------------------------------
 Center     Atomic      Atomic             Coordinates (Angstroms)
 Number     Number       Type             X           Y           Z
 ---------------------------------------------------------------------
      1          6           0       -1.500449    0.730136    0.818276
      2          6           0       -3.599259   -0.511745   -0.684298
      3          6           0        2.314967   -1.256201    0.528839
      4          6           0       -1.154117   -0.245975   -0.298194
      5          6           0       -2.283698   -1.244230   -0.480244
      6          8           0        1.480674    0.539587   -0.858525
      7          6           0        3.610299   -0.480652    0.768798
      8          8           0       -3.876983    0.357593    0.408429
      9          6           0        3.862710    0.486347   -0.385972
     10          6           0        1.184623   -0.286903    0.256933
     11          6           0        2.634393    1.348525   -0.615762
     12          6           0       -2.864645    1.347794    0.543674
     13          8           0        0.028220   -1.014488   -0.038888
     14          1           0       -1.520782    0.197693    1.772313
     15          1           0       -0.768410    1.535300    0.887174
     16          1           0       -4.429556   -1.211454   -0.744958
     17          1           0       -3.569616    0.074590   -1.609410
     18          1           0        2.415867   -1.908832   -0.341383
     19          1           0        2.055309   -1.869793    1.391265
     20          1           0       -1.016095    0.311996   -1.228477
     21          1           0       -2.084108   -1.888440   -1.337084
     22          1           0       -2.352175   -1.870053    0.412408
     23          1           0        4.445006   -1.170058    0.887832
     24          1           0        3.522523    0.086069    1.699499
     25          1           0        4.078515   -0.072256   -1.299561
     26          1           0        4.717998    1.129955   -0.178325
     27          1           0        1.025468    0.360614    1.127894
     28          1           0        2.446308    1.983294    0.257579
     29          1           0        2.744451    1.986823   -1.489379
     30          1           0       -2.826848    1.947529   -0.372760
     31          1           0       -3.168080    1.992898    1.364943
 ---------------------------------------------------------------------

 SCF Done:  E(RM062X) =  -617.509575924     A.U. after    1 cycles

 The electronic state is 1-A.
 Alpha  occ. eigenvalues --  -19.63572 -19.63037 -19.62919 -10.63123 -10.58440
 Alpha  occ. eigenvalues --  -10.57683 -10.57614 -10.57543 -10.52565 -10.52539
 Alpha  occ. eigenvalues --  -10.52509 -10.52418 -10.52249  -1.19969  -1.16220
 Alpha  occ. eigenvalues --   -1.13587  -0.90780  -0.89396  -0.86207  -0.84561
 Alpha  occ. eigenvalues --   -0.75127  -0.73141  -0.72140  -0.69604  -0.65297
 Alpha  occ. eigenvalues --   -0.64802  -0.59933  -0.57458  -0.56860  -0.54370
 Alpha  occ. eigenvalues --   -0.54261  -0.52625  -0.52105  -0.50847  -0.50125
 Alpha  occ. eigenvalues --   -0.49481  -0.46437  -0.45621  -0.44519  -0.43887
 Alpha  occ. eigenvalues --   -0.43107  -0.41355  -0.40645  -0.40017  -0.39094
 Alpha  occ. eigenvalues --   -0.38436  -0.37220  -0.36960  -0.34529  -0.33125
 Alpha  occ. eigenvalues --   -0.32493
 Alpha virt. eigenvalues --    0.00491   0.01294   0.01360   0.01478   0.02725
 Alpha virt. eigenvalues --    0.02857   0.02967   0.03981   0.04103   0.04815
 Alpha virt. eigenvalues --    0.05109   0.05520   0.05762   0.05990   0.07319

 Mulliken charges:
               1
     1  C   -0.050878
     2  C   -0.293372
     3  C   -0.328347
     4  C   -0.298156
     5  C   -0.213463
     6  O   -0.388994
     7  C   -0.419295
     8  O   -0.369997
     9  C   -0.351592
    10  C    0.052262
    11  C   -0.121900
    12  C   -0.395752
    13  O   -0.375716
    14  H    0.224179
    15  H    0.192297
    16  H    0.225475
    17  H    0.159305
    18  H    0.197579
    19  H    0.180675
    20  H    0.272721
    21  H    0.182146
    22  H    0.196690
    23  H    0.205312
    24  H    0.172782
    25  H    0.163714
    26  H    0.179711
    27  H    0.261339
    28  H    0.153932
    29  H    0.198772
    30  H    0.178088
    31  H    0.210484
 Sum of Mulliken charges =  -0.00000

 Dipole moment (field-independent basis, Debye):
    X=              3.1289    Y=              2.0523    Z=              0.6636  Tot=              3.8003
 Quadrupole moment (field-independent basis, Debye-Ang):
   XX=            -80.3639   YY=            -77.4871   ZZ=            -79.5200
   XY=              3.2391   XZ=              7.6341   YZ=              1.1499

  Exact polarizability: 184.247   2.929 174.933   1.815   0.645 168.964
 Approx polarizability: 146.011   2.551 144.262   0.402   0.568 142.438

                      1                      2                      3
                      A                      A                      A
 Frequencies --      9.8493                59.1503                86.1436
 Red. masses --      3.2058                 4.3395                 3.7925
 Frc consts  --      0.0002                 0.0089                 0.0166
 IR Inten    --      1.0632                 3.0493                 1.7043

                      4                      5                      6
                      A                      A                      A
 Frequencies --    160.4048               188.9583               241.9356
 Red. masses --      3.5166                 3.5846                 1.8589
 Frc consts  --      0.0533                 0.0754                 0.0641
 IR Inten    --      6.2673                 9.9640                 0.5107

                      7                      8                      9
                      A                      A                      A
 Frequencies --    246.8490               274.8527               322.5106
 Red. masses --      2.3890                 3.4505                 2.8105
 Frc consts  --      0.0858                 0.1536                 0.1722
 IR Inten    --      8.7831                 3.2848                 5.6622

                     10                     11                     12
                      A                      A                      A
 Frequencies --    360.5192               383.8353               440.6402
 Red. masses --      2.1811                 2.3847                 3.5460
 Frc consts  --      0.1670                 0.2070                 0.4057
 IR Inten    --      8.5569                 4.8924                 4.2724

                     13                     14                     15
                      A                      A                      A
 Frequencies --    457.2887               481.6595               488.1156
 Red. masses --      2.7805                 2.8761                 2.7118
 Frc consts  --      0.3426                 0.3931                 0.3807
 IR Inten    --      2.1883                 0.6692                 0.3796

                     16                     17                     18
                      A                      A                      A
 Frequencies --    520.3126               550.1250               607.3222
 Red. masses --      3.0017                 2.2241                 2.3441
 Frc consts  --      0.4788                 0.3966                 0.5094
 IR Inten    --      6.2920                 4.1395                10.9601

                     19                     20                     21
                      A                      A                      A
 Frequencies --    664.4176               831.2313               834.2422
 Red. masses --      2.9102                 1.5367                 1.7619
 Frc consts  --      0.7569                 0.6256                 0.7225
 IR Inten    --     38.4658                 1.2096                10.3771

                     22                     23                     24
                      A                      A                      A
 Frequencies --    842.0085               863.2195               883.1386
 Red. masses --      2.5693                 1.9625                 1.9376
 Frc consts  --      1.0732                 0.8616                 0.8904
 IR Inten    --     14.2476                13.9157                17.2254

                     25                     26                     27
                      A                      A                      A
 Frequencies --    900.9250               935.8162               941.8460
 Red. masses --      2.4869                 2.2433                 1.8328
 Frc consts  --      1.1893                 1.1575                 0.9579
 IR Inten    --     23.9896                40.3964                 4.2467

                     28                     29                     30
                      A                      A                      A
 Frequencies --    958.5404               990.1566              1006.2453
 Red. masses --      2.1357                 1.7988                 1.4826
 Frc consts  --      1.1561                 1.0391                 0.8845
 IR Inten    --     14.8433                29.1692                26.9898

                     31                     32                     33
                      A                      A                      A
 Frequencies --   1012.2783              1039.2757              1059.2642
 Red. masses --      1.9847                 2.2383                 1.5070
 Frc consts  --      1.1982                 1.4244                 0.9963
 IR Inten    --     20.6340                37.2485                80.1087

                     34                     35                     36
                      A                      A                      A
 Frequencies --   1089.3649              1098.7136              1125.0483
 Red. masses --      3.0422                 2.7008                 3.6757
 Frc consts  --      2.1271                 1.9210                 2.7412
 IR Inten    --     28.0640                80.8727               265.2771

                     37                     38                     39
                      A                      A                      A
 Frequencies --   1135.4139              1158.7712              1168.0875
 Red. masses --      3.2718                 2.3498                 2.6103
 Frc consts  --      2.4851                 1.8590                 2.0984
 IR Inten    --     53.2726                23.3594                42.4374

                     40                     41                     42
                      A                      A                      A
 Frequencies --   1187.8183              1196.1528              1204.8745
 Red. masses --      2.0045                 1.3514                 1.6371
 Frc consts  --      1.6663                 1.1393                 1.4003
 IR Inten    --     67.4809                12.1146                54.7948

                     43                     44                     45
                      A                      A                      A
 Frequencies --   1230.2501              1241.8762              1273.3410
 Red. masses --      3.8588                 1.6807                 1.3294
 Frc consts  --      3.4410                 1.5272                 1.2700
 IR Inten    --    364.8951                67.1388                 6.4078

                     46                     47                     48
                      A                      A                      A
 Frequencies --   1278.4784              1281.8503              1314.6365
 Red. masses --      1.2312                 1.2717                 1.2062
 Frc consts  --      1.1856                 1.2311                 1.2283
 IR Inten    --      8.8986                 7.6913                30.9746

                     49                     50                     51
                      A                      A                      A
 Frequencies --   1320.3688              1343.2048              1349.1120
 Red. masses --      1.3604                 1.3360                 1.2812
 Frc consts  --      1.3973                 1.4202                 1.3739
 IR Inten    --     18.9955                 8.7312                 3.0189

                     52                     53                     54
                      A                      A                      A
 Frequencies --   1360.2022              1366.7701              1384.6800
 Red. masses --      1.1858                 1.4192                 1.5138
 Frc consts  --      1.2926                 1.5620                 1.7100
 IR Inten    --      6.0250                 1.0002                 5.0513

                     55                     56                     57
                      A                      A                      A
 Frequencies --   1390.8248              1393.3122              1405.7334
 Red. masses --      1.2705                 1.2872                 1.4806
 Frc consts  --      1.4481                 1.4723                 1.7239
 IR Inten    --     21.3024                36.5330                53.6632

                     58                     59                     60
                      A                      A                      A
 Frequencies --   1410.1771              1421.1168              1429.9650
 Red. masses --      1.5351                 1.3274                 1.3381
 Frc consts  --      1.7986                 1.5795                 1.6121
 IR Inten    --     18.9329                16.2405                 7.4139

                     61                     62                     63
                      A                      A                      A
 Frequencies --   1441.3919              1467.5606              1470.8024
 Red. masses --      1.5948                 1.1001                 1.1220
 Frc consts  --      1.9522                 1.3959                 1.4301
 IR Inten    --     32.4311                 4.8371                 2.7573

                     64                     65                     66
                      A                      A                      A
 Frequencies --   1472.7536              1480.6801              1490.3737
 Red. masses --      1.0989                 1.1232                 1.1248
 Frc consts  --      1.4043                 1.4509                 1.4720
 IR Inten    --     10.4877                 7.8748                26.1782

                     67                     68                     69
                      A                      A                      A
 Frequencies --   1499.7477              1503.3863              1509.0936
 Red. masses --      1.0828                 1.0961                 1.1026
 Frc consts  --      1.4350                 1.4596                 1.4795
 IR Inten    --      3.1341                 5.4676                 7.5128

                     70                     71                     72
                      A                      A                      A
 Frequencies --   3031.5097              3035.6789              3036.0147
 Red. masses --      1.0814                 1.0702                 1.0711
 Frc consts  --      5.8551                 5.8109                 5.8170
 IR Inten    --     36.5111                74.0356                81.5503

                     73                     74                     75
                      A                      A                      A
 Frequencies --   3038.0781              3060.8441              3061.1105
 Red. masses --      1.0702                 1.0751                 1.0737
 Frc consts  --      5.8198                 5.9344                 5.9279
 IR Inten    --     80.4511                27.2088                 5.9182

                     76                     77                     78
                      A                      A                      A
 Frequencies --   3069.1861              3069.5535              3072.8766
 Red. masses --      1.0615                 1.0615                 1.0615
 Frc consts  --      5.8915                 5.8927                 5.9058
 IR Inten    --     46.8269                 9.4932                52.2384

                     79                     80                     81
                      A                      A                      A
 Frequencies --   3074.4252              3118.2554              3122.1729
 Red. masses --      1.0641                 1.0986                 1.1001
 Frc consts  --      5.9260                 6.2937                 6.3182
 IR Inten    --     73.1486                42.7324                57.3194

                     82                     83                     84
                      A                      A                      A
 Frequencies --   3124.6649              3125.9261              3129.6386
 Red. masses --      1.1027                 1.1031                 1.1037
 Frc consts  --      6.3435                 6.3510                 6.3691
 IR Inten    --     35.4876                55.3308                48.3307

                     85                     86                     87
                      A                      A                      A
 Frequencies --   3141.8550              3142.0527              3144.3242
 Red. masses --      1.0954                 1.0958                 1.0960
 Frc consts  --      6.3706                 6.3742                 6.3844
 IR Inten    --     39.6713                39.6501                33.3773

 - Thermochemistry -
 -------------------
 Temperature   298.150 Kelvin.  Pressure   1.00000 Atm.
 Atom     1 has atomic number  6 and mass  12.00000

 Molecular mass:   186.12559 amu.
 Principal axes and moments of inertia in atomic units:
                           1         2         3
     Eigenvalues --   838.452234901.950485192.27437
           X            0.99997   0.00185   0.00735
           Y           -0.00193   0.99994   0.01090
           Z           -0.00733  -0.01092   0.99991
 This molecule is an asymmetric top.
 Rotational symmetry number  1.
 Warning -- assumption of classical behavior for rotation
           may cause significant error
 Rotational temperatures (Kelvin)      0.10330     0.01767     0.01668
 Rotational constants (GHZ):           2.15247     0.36817     0.34758
 Zero-point vibrational energy     736523.9 (Joules/Mol)
                                  176.03344 (Kcal/Mol)
 Warning -- explicit consideration of  18 degrees of freedom as
           vibrations may cause significant error
 Vibrational temperatures:     14.17    85.10   123.94   230.79   271.87
          (Kelvin)            348.09   355.16   395.45   464.02   518.71
                              552.25   633.98   657.94   693.00   702.29
                              748.61   791.51   873.80   955.95  1195.96
                             1200.29  1211.46  1241.98  1270.64  1296.23
                             1346.43  1355.11  1379.13  1424.61  1447.76
                             1456.44  1495.29  1524.04  1567.35  1580.80
                             1618.69  1633.61  1667.21  1680.62  1709.01
                             1721.00  1733.55  1770.06  1786.78  1832.05
                             1839.45  1844.30  1891.47  1899.72  1932.57
                             1941.07  1957.03  1966.48  1992.25  2001.09
                             2004.67  2022.54  2028.93  2044.67  2057.40
                             2073.84  2111.49  2116.16  2118.96  2130.37
                             2144.32  2157.80  2163.04  2171.25  4361.67
                             4367.66  4368.15  4371.12  4403.87  4404.26
                             4415.87  4416.40  4421.18  4423.41  4486.47
                             4492.11  4495.70  4497.51  4502.85  4520.43
                             4520.71  4523.98

 Zero-point correction=                           0.280527 (Hartree/Particle)
 Thermal correction to Energy=                    0.292348
 Thermal correction to Enthalpy=                  0.293292
 Thermal correction to Gibbs Free Energy=         0.240880
 Sum of electronic and zero-point Energies=           -617.229049
 Sum of electronic and thermal Energies=              -617.217228
 Sum of electronic and thermal Enthalpies=            -617.216284
 Sum of electronic and thermal Free Energies=         -617.268696

                     E (Thermal)             CV                S
                      KCal/Mol        Cal/Mol-Kelvin    Cal/Mol-Kelvin
 Total                  183.451             46.816            110.311
 Electronic               0.000              0.000              0.000
 Translational            0.889              2.981             41.570
 Rotational               0.889              2.981             31.435
 Vibrational            181.674             40.854             37.306
 Vibration     1          0.593              1.987              8.041
 Vibration     2          0.597              1.974              4.485
 Vibration     3          0.601              1.959              3.746
 Vibration     4          0.622              1.891              2.545
 Vibration     5          0.633              1.855              2.238
 Vibration     6          0.658              1.776              1.789
 Vibration     7          0.661              1.768              1.753
 Vibration     8          0.677              1.720              1.565
 Vibration     9          0.708              1.630              1.297
 Vibration    10          0.735              1.554              1.120
 Vibration    11          0.753              1.505              1.024
 Vibration    12          0.801              1.382              0.825
 Vibration    13          0.815              1.345              0.774
 Vibration    14          0.838              1.291              0.706
 Vibration    15          0.844              1.276              0.689
 Vibration    16          0.875              1.205              0.609
 Vibration    17          0.905              1.139              0.544
 Vibration    18          0.966              1.016              0.437

 Optimization completed.
    -- Stationary point found.
 Normal termination of Gaussian 16 at Sat Mar  9 13:25:17 2019.
