 Gaussian 16, Revision B.01,
 Gaussian 16:  ES64L-G16RevB.01 20-Dec-2017

 ----------------------------------------------------------------------
 #M062X/6-311++G(2d,2p) opt=ModRedundant freq=noraman SCRF=(SMD,solvent
 =water)
 ----------------------------------------------------------------------

 --------------------------------
 4c1_b1_e3_4c1_PSI.inp_extract_15
 --------------------------------
 Symbolic Z-matrix:
 Charge =  0 Multiplicity = 1

 SCF Done:  E(RM062X) =  -617.502478238     A.U. after   12 cycles
 SCF Done:  E(RM062X) =  -617.503909460     A.U. after   10 cycles
 SCF Done:  E(RM062X) =  -617.504195607     A.U. after   10 cycles
 SCF Done:  E(RM062X) =  -617.504337259     A.U. after    9 cycles
 SCF Done:  E(RM062X) =  -617.504346534     A.U. after    8 cycles
 SCF Done:  E(RM062X) =  -617.504347290     A.U. after    7 cycles
 Optimization completed.
    -- Stationary point found.
 Normal termination of Gaussian 16 at Sat Mar  9 15:01:00 2019.

 ----------------------------------------------------------------------
 #N Geom=AllCheck Guess=TCheck SCRF=Check GenChk RM062X/6-311++G(2d,2p)
  Freq
 ----------------------------------------------------------------------

 Structure from the checkpoint file:  "4c1_b1_e3_4c1_PSI.inp_extract_15.chk"
 --------------------------------
 4c1_b1_e3_4c1_PSI.inp_extract_15
 --------------------------------
 Charge =  0 Multiplicity = 1

                         Standard orientation:
 ---------------------------------------------------------------------
 Center     Atomic      Atomic             Coordinates (Angstroms)
 Number     Number       Type             X           Y           Z
 ---------------------------------------------------------------------
      1          6           0       -2.078929   -0.901192   -0.951835
      2          6           0       -2.873496    0.989201    1.014154
      3          6           0        2.413111   -1.244498    0.419712
      4          6           0       -1.264308   -0.758432    0.324226
      5          6           0       -1.393234    0.659035    0.865473
      6          8           0        1.274100    0.516206   -0.778085
      7          6           0        3.635363   -0.343051    0.597110
      8          8           0       -3.570345    0.868129   -0.219801
      9          6           0        3.677962    0.710309   -0.507570
     10          6           0        1.162388   -0.397095    0.309785
     11          6           0        2.347221    1.438085   -0.577987
     12          6           0       -3.514701   -0.468710   -0.707634
     13          8           0        0.072570   -1.225862    0.050812
     14          1           0       -1.633956   -0.273809   -1.727916
     15          1           0       -2.060015   -1.936241   -1.294366
     16          1           0       -3.002344    2.017013    1.345225
     17          1           0       -3.335944    0.325351    1.753163
     18          1           0        2.502123   -1.834457   -0.495495
     19          1           0        2.302539   -1.929105    1.260373
     20          1           0       -1.672349   -1.441297    1.075362
     21          1           0       -0.924272    0.758654    1.843987
     22          1           0       -0.930725    1.373313    0.183038
     23          1           0        4.546279   -0.940253    0.600161
     24          1           0        3.572927    0.157214    1.567224
     25          1           0        3.869609    0.232540   -1.471038
     26          1           0        4.474663    1.433049   -0.329049
     27          1           0        1.019773    0.181020    1.228151
     28          1           0        2.169497    1.997602    0.347927
     29          1           0        2.309860    2.133674   -1.413369
     30          1           0       -3.993738   -1.134421    0.019143
     31          1           0       -4.092778   -0.489539   -1.628533
 ---------------------------------------------------------------------

 SCF Done:  E(RM062X) =  -617.504347290     A.U. after    1 cycles

 The electronic state is 1-A.
 Alpha  occ. eigenvalues --  -19.63326 -19.62931 -19.62737 -10.63122 -10.58667
 Alpha  occ. eigenvalues --  -10.57731 -10.57576 -10.57408 -10.52711 -10.52496
 Alpha  occ. eigenvalues --  -10.52370 -10.52366 -10.52196  -1.19555  -1.16225
 Alpha  occ. eigenvalues --   -1.13305  -0.90718  -0.89338  -0.86239  -0.84595
 Alpha  occ. eigenvalues --   -0.75043  -0.72938  -0.72413  -0.69640  -0.65224
 Alpha  occ. eigenvalues --   -0.64960  -0.59674  -0.57116  -0.56192  -0.54489
 Alpha  occ. eigenvalues --   -0.54234  -0.52705  -0.52406  -0.51191  -0.49821
 Alpha  occ. eigenvalues --   -0.49223  -0.46531  -0.45619  -0.44687  -0.43639
 Alpha  occ. eigenvalues --   -0.43005  -0.41354  -0.40435  -0.39741  -0.39418
 Alpha  occ. eigenvalues --   -0.38444  -0.37230  -0.36644  -0.34621  -0.32787
 Alpha  occ. eigenvalues --   -0.32265
 Alpha virt. eigenvalues --    0.00467   0.01269   0.01416   0.01432   0.02700
 Alpha virt. eigenvalues --    0.02876   0.02967   0.03896   0.04054   0.04989
 Alpha virt. eigenvalues --    0.05151   0.05333   0.05893   0.06014   0.07525

 Mulliken charges:
               1
     1  C   -0.183786
     2  C   -0.488579
     3  C   -0.309571
     4  C   -0.127071
     5  C   -0.153607
     6  O   -0.400364
     7  C   -0.399253
     8  O   -0.366383
     9  C   -0.395308
    10  C    0.077118
    11  C   -0.111349
    12  C   -0.257181
    13  O   -0.416219
    14  H    0.183603
    15  H    0.179806
    16  H    0.206646
    17  H    0.177413
    18  H    0.192645
    19  H    0.179909
    20  H    0.277025
    21  H    0.178688
    22  H    0.254913
    23  H    0.201663
    24  H    0.173813
    25  H    0.162632
    26  H    0.181936
    27  H    0.255758
    28  H    0.156217
    29  H    0.198696
    30  H    0.161835
    31  H    0.208354
 Sum of Mulliken charges =  -0.00000

 Dipole moment (field-independent basis, Debye):
    X=              2.2047    Y=              0.2746    Z=              3.4442  Tot=              4.0986
 Quadrupole moment (field-independent basis, Debye-Ang):
   XX=            -75.8930   YY=            -80.5583   ZZ=            -77.6386
   XY=              9.5011   XZ=             -1.4208   YZ=              1.9205

  Exact polarizability: 184.611   3.693 173.710  -0.337   1.611 170.135
 Approx polarizability: 145.832   2.602 144.339   0.019   0.779 142.884

 ******    1 imaginary frequencies (negative Signs) ******

                      1                      2                      3
                      A                      A                      A
 Frequencies --    -54.9981                63.3761                81.5544
 Red. masses --      3.5939                 3.8917                 3.7091
 Frc consts  --      0.0064                 0.0092                 0.0145
 IR Inten    --      2.4258                 0.4636                 2.8558

                      4                      5                      6
                      A                      A                      A
 Frequencies --    157.4274               198.1000               242.5815
 Red. masses --      3.7883                 3.1461                 1.8129
 Frc consts  --      0.0553                 0.0727                 0.0629
 IR Inten    --     13.2973                 0.7207                 1.4470

                      7                      8                      9
                      A                      A                      A
 Frequencies --    247.5579               280.4685               329.6704
 Red. masses --      2.5699                 3.3609                 2.8379
 Frc consts  --      0.0928                 0.1558                 0.1817
 IR Inten    --      8.1249                 2.3686                 9.3184

                     10                     11                     12
                      A                      A                      A
 Frequencies --    363.4242               379.4234               431.4653
 Red. masses --      2.3664                 2.3970                 3.2632
 Frc consts  --      0.1841                 0.2033                 0.3579
 IR Inten    --      5.8942                 7.9395                 1.7272

                     13                     14                     15
                      A                      A                      A
 Frequencies --    452.8306               473.8515               489.9306
 Red. masses --      2.4398                 3.5031                 3.1701
 Frc consts  --      0.2948                 0.4634                 0.4483
 IR Inten    --      3.7356                 1.4401                 1.5079

                     16                     17                     18
                      A                      A                      A
 Frequencies --    527.4573               548.9318               600.7647
 Red. masses --      2.4977                 2.7274                 2.1611
 Frc consts  --      0.4094                 0.4842                 0.4595
 IR Inten    --      5.6979                 1.0978                 4.5008

                     19                     20                     21
                      A                      A                      A
 Frequencies --    658.4219               830.0846               833.9270
 Red. masses --      2.8892                 1.7735                 1.5338
 Frc consts  --      0.7380                 0.7200                 0.6285
 IR Inten    --     41.2252                14.0278                 3.1007

                     22                     23                     24
                      A                      A                      A
 Frequencies --    837.7843               863.3797               878.7596
 Red. masses --      2.5033                 1.9379                 2.1497
 Frc consts  --      1.0352                 0.8511                 0.9781
 IR Inten    --      6.5009                20.4368                30.5067

                     25                     26                     27
                      A                      A                      A
 Frequencies --    902.1545               925.9503               941.0318
 Red. masses --      2.3510                 2.4205                 1.7697
 Frc consts  --      1.1274                 1.2228                 0.9233
 IR Inten    --     35.0419                47.2002                 4.9442

                     28                     29                     30
                      A                      A                      A
 Frequencies --    957.7984               984.0589              1002.8356
 Red. masses --      2.2164                 1.7795                 1.4913
 Frc consts  --      1.1980                 1.0153                 0.8837
 IR Inten    --      7.6653                49.3601                26.9086

                     31                     32                     33
                      A                      A                      A
 Frequencies --   1014.5761              1038.4407              1054.2423
 Red. masses --      2.0094                 2.2416                 1.5728
 Frc consts  --      1.2187                 1.4242                 1.0299
 IR Inten    --      5.7271                28.8041               110.0307

                     34                     35                     36
                      A                      A                      A
 Frequencies --   1078.6445              1094.4551              1113.6358
 Red. masses --      3.1146                 2.3113                 4.1966
 Frc consts  --      2.1351                 1.6312                 3.0664
 IR Inten    --     48.6711                33.3468               299.1281

                     37                     38                     39
                      A                      A                      A
 Frequencies --   1133.5062              1156.5535              1169.5272
 Red. masses --      3.2702                 2.2932                 2.5681
 Frc consts  --      2.4756                 1.8072                 2.0696
 IR Inten    --     62.2698                14.2648                23.0084

                     40                     41                     42
                      A                      A                      A
 Frequencies --   1187.7809              1195.2924              1204.5552
 Red. masses --      2.2081                 1.4474                 1.6329
 Frc consts  --      1.8355                 1.2184                 1.3959
 IR Inten    --     81.1791                38.4362               114.4567

                     43                     44                     45
                      A                      A                      A
 Frequencies --   1215.9113              1237.7464              1274.5518
 Red. masses --      3.0077                 1.6489                 1.3010
 Frc consts  --      2.6199                 1.4883                 1.2452
 IR Inten    --    299.6903                33.0820                15.5681

                     46                     47                     48
                      A                      A                      A
 Frequencies --   1278.8108              1280.2273              1314.0161
 Red. masses --      1.2503                 1.2598                 1.1856
 Frc consts  --      1.2047                 1.2165                 1.2061
 IR Inten    --      3.7325                10.1268                26.5798

                     49                     50                     51
                      A                      A                      A
 Frequencies --   1327.0241              1341.8959              1353.1364
 Red. masses --      1.3984                 1.3209                 1.3283
 Frc consts  --      1.4509                 1.4013                 1.4330
 IR Inten    --     41.5684                10.0644                 3.6223

                     52                     53                     54
                      A                      A                      A
 Frequencies --   1367.4081              1367.8782              1384.4141
 Red. masses --      1.2329                 1.4060                 1.4789
 Frc consts  --      1.3583                 1.5500                 1.6700
 IR Inten    --     15.2913                 1.8758                 9.9460

                     55                     56                     57
                      A                      A                      A
 Frequencies --   1390.7469              1392.6644              1406.4035
 Red. masses --      1.2496                 1.2981                 1.4704
 Frc consts  --      1.4240                 1.4834                 1.7136
 IR Inten    --     20.4653                 5.3177                26.5549

                     58                     59                     60
                      A                      A                      A
 Frequencies --   1415.5814              1420.1050              1430.9553
 Red. masses --      1.3723                 1.3915                 1.3361
 Frc consts  --      1.6203                 1.6534                 1.6119
 IR Inten    --      9.4228                45.3721                 9.6181

                     61                     62                     63
                      A                      A                      A
 Frequencies --   1447.9324              1468.5633              1472.8785
 Red. masses --      1.4302                 1.1013                 1.1194
 Frc consts  --      1.7666                 1.3994                 1.4308
 IR Inten    --     34.9866                 4.6918                 3.7154

                     64                     65                     66
                      A                      A                      A
 Frequencies --   1473.6835              1481.6264              1489.8275
 Red. masses --      1.1007                 1.1170                 1.1282
 Frc consts  --      1.4084                 1.4448                 1.4755
 IR Inten    --      9.4383                 8.6900                27.3899

                     67                     68                     69
                      A                      A                      A
 Frequencies --   1500.1785              1505.8881              1509.4505
 Red. masses --      1.0838                 1.0950                 1.1014
 Frc consts  --      1.4371                 1.4631                 1.4786
 IR Inten    --      3.2102                 5.0657                 7.2461

                     70                     71                     72
                      A                      A                      A
 Frequencies --   3030.9848              3036.9938              3037.5148
 Red. masses --      1.0704                 1.0700                 1.0703
 Frc consts  --      5.7937                 5.8146                 5.8184
 IR Inten    --     69.0946                30.8235               102.4070

                     73                     74                     75
                      A                      A                      A
 Frequencies --   3049.2931              3059.7480              3060.8973
 Red. masses --      1.0832                 1.0800                 1.0693
 Frc consts  --      5.9341                 5.9572                 5.9026
 IR Inten    --     52.1969                30.4674                32.8989

                     76                     77                     78
                      A                      A                      A
 Frequencies --   3069.7614              3070.6086              3073.0898
 Red. masses --      1.0618                 1.0623                 1.0628
 Frc consts  --      5.8953                 5.9015                 5.9133
 IR Inten    --     39.3092                38.9010                58.2908

                     79                     80                     81
                      A                      A                      A
 Frequencies --   3087.2586              3118.5593              3121.7779
 Red. masses --      1.0602                 1.0971                 1.1015
 Frc consts  --      5.9539                 6.2863                 6.3245
 IR Inten    --     29.7070                41.4743                60.4712

                     82                     83                     84
                      A                      A                      A
 Frequencies --   3125.8863              3129.0944              3138.3115
 Red. masses --      1.1026                 1.1037                 1.1031
 Frc consts  --      6.3477                 6.3670                 6.4010
 IR Inten    --     46.4240                50.9670                46.7840

                     85                     86                     87
                      A                      A                      A
 Frequencies --   3140.2334              3143.2468              3144.8360
 Red. masses --      1.0955                 1.0962                 1.0968
 Frc consts  --      6.3648                 6.3814                 6.3908
 IR Inten    --     38.7707                30.8591                37.1058

 - Thermochemistry -
 -------------------
 Temperature   298.150 Kelvin.  Pressure   1.00000 Atm.
 Atom     1 has atomic number  6 and mass  12.00000

 Molecular mass:   186.12559 amu.
 Principal axes and moments of inertia in atomic units:
                           1         2         3
     Eigenvalues --   908.503224618.312624869.44088
           X            0.99997   0.00790   0.00040
           Y           -0.00791   0.99940   0.03380
           Z           -0.00013  -0.03380   0.99943
 This molecule is an asymmetric top.
 Rotational symmetry number  1.
 Warning -- assumption of classical behavior for rotation
           may cause significant error
 Rotational temperatures (Kelvin)      0.09534     0.01875     0.01779
 Rotational constants (GHZ):           1.98650     0.39078     0.37063
    1 imaginary frequencies ignored.
 Zero-point vibrational energy     736384.1 (Joules/Mol)
                                  176.00003 (Kcal/Mol)
 Warning -- explicit consideration of  17 degrees of freedom as
           vibrations may cause significant error
 Vibrational temperatures:     91.18   117.34   226.50   285.02   349.02
          (Kelvin)            356.18   403.53   474.32   522.89   545.91
                              620.78   651.52   681.77   704.90   758.89
                              789.79   864.37   947.32  1194.31  1199.83
                             1205.38  1242.21  1264.34  1298.00  1332.24
                             1353.93  1378.06  1415.84  1442.86  1459.75
                             1494.08  1516.82  1551.93  1574.68  1602.27
                             1630.86  1664.02  1682.69  1708.95  1719.76
                             1733.09  1749.43  1780.84  1833.80  1839.92
                             1841.96  1890.58  1909.29  1930.69  1946.86
                             1967.40  1968.07  1991.86  2000.97  2003.73
                             2023.50  2036.71  2043.21  2058.83  2083.25
                             2112.93  2119.14  2120.30  2131.73  2143.53
                             2158.42  2166.64  2171.76  4360.91  4369.56
                             4370.31  4387.25  4402.29  4403.95  4416.70
                             4417.92  4421.49  4441.88  4486.91  4491.54
                             4497.45  4502.07  4515.33  4518.10  4522.43
                             4524.72

 Zero-point correction=                           0.280474 (Hartree/Particle)
 Thermal correction to Energy=                    0.291375
 Thermal correction to Enthalpy=                  0.292319
 Thermal correction to Gibbs Free Energy=         0.243781
 Sum of electronic and zero-point Energies=           -617.223873
 Sum of electronic and thermal Energies=              -617.212972
 Sum of electronic and thermal Enthalpies=            -617.212028
 Sum of electronic and thermal Free Energies=         -617.260567

                     E (Thermal)             CV                S
                      KCal/Mol        Cal/Mol-Kelvin    Cal/Mol-Kelvin
 Total                  182.841             44.919            102.158
 Electronic               0.000              0.000              0.000
 Translational            0.889              2.981             41.570
 Rotational               0.889              2.981             31.391
 Vibrational            181.063             38.957             29.197
 Vibration     1          0.597              1.972              4.349
 Vibration     2          0.600              1.962              3.853
 Vibration     3          0.621              1.894              2.580
 Vibration     4          0.637              1.843              2.151
 Vibration     5          0.659              1.775              1.784
 Vibration     6          0.661              1.767              1.748
 Vibration     7          0.680              1.710              1.531
 Vibration     8          0.712              1.616              1.262
 Vibration     9          0.737              1.548              1.107
 Vibration    10          0.749              1.514              1.041
 Vibration    11          0.793              1.402              0.854
 Vibration    12          0.811              1.355              0.787
 Vibration    13          0.831              1.308              0.727
 Vibration    14          0.846              1.272              0.684
 Vibration    15          0.882              1.189              0.593
 Vibration    16          0.904              1.142              0.546
 Vibration    17          0.959              1.030              0.448

 Optimization completed.
    -- Stationary point found.
 Normal termination of Gaussian 16 at Sat Mar  9 16:04:11 2019.
