 Gaussian 16, Revision B.01,
 Gaussian 16:  ES64L-G16RevB.01 20-Dec-2017

 ----------------------------------------------------------------------
 #M062X/6-311++G(2d,2p) opt=ModRedundant freq=noraman SCRF=(SMD,solvent
 =water)
 ----------------------------------------------------------------------

 --------------------------------
 4c1_b1_e3_4c1_PSI.inp_extract_22
 --------------------------------
 Symbolic Z-matrix:
 Charge =  0 Multiplicity = 1

 SCF Done:  E(RM062X) =  -617.507884893     A.U. after   12 cycles
 SCF Done:  E(RM062X) =  -617.509389766     A.U. after   10 cycles
 SCF Done:  E(RM062X) =  -617.509502775     A.U. after    9 cycles
 SCF Done:  E(RM062X) =  -617.509516050     A.U. after    9 cycles
 SCF Done:  E(RM062X) =  -617.509517523     A.U. after    7 cycles
 SCF Done:  E(RM062X) =  -617.509517641     A.U. after    6 cycles
 Optimization completed.
    -- Stationary point found.
 Normal termination of Gaussian 16 at Sat Mar  9 16:34:47 2019.

 ----------------------------------------------------------------------
 #N Geom=AllCheck Guess=TCheck SCRF=Check GenChk RM062X/6-311++G(2d,2p)
  Freq
 ----------------------------------------------------------------------

 Structure from the checkpoint file:  "4c1_b1_e3_4c1_PSI.inp_extract_22.chk"
 --------------------------------
 4c1_b1_e3_4c1_PSI.inp_extract_22
 --------------------------------
 Charge =  0 Multiplicity = 1

                         Standard orientation:
 ---------------------------------------------------------------------
 Center     Atomic      Atomic             Coordinates (Angstroms)
 Number     Number       Type             X           Y           Z
 ---------------------------------------------------------------------
      1          6           0       -2.154399   -1.330925    0.206260
      2          6           0       -3.062512    1.349871   -0.169166
      3          6           0        2.360326   -1.233240   -0.546813
      4          6           0       -1.137321   -0.211824    0.059780
      5          6           0       -1.731844    0.917810   -0.767113
      6          8           0        1.469190    0.956216   -0.034179
      7          6           0        3.691658   -0.851005    0.099998
      8          8           0       -3.973170    0.258446   -0.084187
      9          6           0        3.878458    0.663881    0.058428
     10          6           0        1.236847   -0.441213    0.085390
     11          6           0        2.660765    1.349524    0.651612
     12          6           0       -3.461506   -0.775090    0.750815
     13          8           0        0.040213   -0.734318   -0.569763
     14          1           0       -2.329847   -1.781438   -0.773360
     15          1           0       -1.775516   -2.103087    0.876816
     16          1           0       -3.540815    2.106544   -0.786880
     17          1           0       -2.909543    1.765752    0.833183
     18          1           0        2.374881   -1.002158   -1.614476
     19          1           0        2.153316   -2.296500   -0.427960
     20          1           0       -0.870619    0.166526    1.051080
     21          1           0       -1.051872    1.768730   -0.801874
     22          1           0       -1.891016    0.562131   -1.787629
     23          1           0        4.513443   -1.358297   -0.403481
     24          1           0        3.693825   -1.184634    1.141033
     25          1           0        4.003363    0.996311   -0.974595
     26          1           0        4.766233    0.964394    0.615555
     27          1           0        1.148417   -0.677778    1.155097
     28          1           0        2.561681    1.096422    1.713174
     29          1           0        2.718963    2.431545    0.558607
     30          1           0       -3.311302   -0.376815    1.760650
     31          1           0       -4.226277   -1.547136    0.794943
 ---------------------------------------------------------------------

 SCF Done:  E(RM062X) =  -617.509517641     A.U. after    1 cycles

 The electronic state is 1-A.
 Alpha  occ. eigenvalues --  -19.63498 -19.62966 -19.62902 -10.63268 -10.58444
 Alpha  occ. eigenvalues --  -10.57613 -10.57577 -10.57496 -10.52546 -10.52435
 Alpha  occ. eigenvalues --  -10.52431 -10.52323 -10.52239  -1.19959  -1.16152
 Alpha  occ. eigenvalues --   -1.13582  -0.90794  -0.89398  -0.86053  -0.84496
 Alpha  occ. eigenvalues --   -0.74685  -0.72914  -0.72192  -0.69971  -0.66096
 Alpha  occ. eigenvalues --   -0.64238  -0.59910  -0.57655  -0.56759  -0.54318
 Alpha  occ. eigenvalues --   -0.54169  -0.52811  -0.51561  -0.50817  -0.49683
 Alpha  occ. eigenvalues --   -0.49469  -0.46156  -0.45627  -0.45299  -0.44179
 Alpha  occ. eigenvalues --   -0.42433  -0.41132  -0.40607  -0.39869  -0.39227
 Alpha  occ. eigenvalues --   -0.39005  -0.37270  -0.36945  -0.34046  -0.33326
 Alpha  occ. eigenvalues --   -0.32430
 Alpha virt. eigenvalues --    0.00509   0.01247   0.01353   0.01462   0.02691
 Alpha virt. eigenvalues --    0.02856   0.02960   0.03999   0.04030   0.04807
 Alpha virt. eigenvalues --    0.05111   0.05554   0.05807   0.05851   0.07367

 Mulliken charges:
               1
     1  C   -0.113071
     2  C   -0.296984
     3  C   -0.248071
     4  C   -0.095227
     5  C   -0.240834
     6  O   -0.421260
     7  C   -0.420228
     8  O   -0.371312
     9  C   -0.324863
    10  C   -0.062506
    11  C   -0.173693
    12  C   -0.343650
    13  O   -0.350438
    14  H    0.197592
    15  H    0.163112
    16  H    0.215481
    17  H    0.163026
    18  H    0.196751
    19  H    0.181208
    20  H    0.258067
    21  H    0.187068
    22  H    0.193001
    23  H    0.202653
    24  H    0.175002
    25  H    0.159323
    26  H    0.181278
    27  H    0.242215
    28  H    0.158083
    29  H    0.201493
    30  H    0.161357
    31  H    0.225427
 Sum of Mulliken charges =  -0.00000

 Dipole moment (field-independent basis, Debye):
    X=              3.5368    Y=             -0.2544    Z=              3.6122  Tot=              5.0618
 Quadrupole moment (field-independent basis, Debye-Ang):
   XX=            -81.8745   YY=            -76.6519   ZZ=            -78.8320
   XY=              1.0150   XZ=             -1.1784   YZ=             -1.3151

  Exact polarizability: 183.799   2.240 175.768   0.683  -0.313 168.843
 Approx polarizability: 145.958   1.850 144.260   1.767  -0.263 142.455

                      1                      2                      3
                      A                      A                      A
 Frequencies --     35.9864                58.6774                75.4360
 Red. masses --      3.2163                 4.0381                 4.2108
 Frc consts  --      0.0025                 0.0082                 0.0141
 IR Inten    --      0.0828                 2.0082                 0.0566

                      4                      5                      6
                      A                      A                      A
 Frequencies --    147.1008               211.8013               240.5561
 Red. masses --      3.3045                 3.6847                 1.7892
 Frc consts  --      0.0421                 0.0974                 0.0610
 IR Inten    --      5.2977                 2.3983                 0.8496

                      7                      8                      9
                      A                      A                      A
 Frequencies --    245.5119               274.1373               315.9780
 Red. masses --      2.5520                 3.3571                 3.0917
 Frc consts  --      0.0906                 0.1486                 0.1819
 IR Inten    --      7.4388                 1.6076                16.9528

                     10                     11                     12
                      A                      A                      A
 Frequencies --    357.4717               389.7802               440.0295
 Red. masses --      1.9980                 2.4441                 4.2498
 Frc consts  --      0.1504                 0.2188                 0.4848
 IR Inten    --      4.9791                11.8676                 5.0111

                     13                     14                     15
                      A                      A                      A
 Frequencies --    445.4573               478.9828               504.3369
 Red. masses --      2.4790                 3.0350                 2.8581
 Frc consts  --      0.2898                 0.4102                 0.4283
 IR Inten    --      1.5068                 0.3644                 2.1629

                     16                     17                     18
                      A                      A                      A
 Frequencies --    522.5013               548.9848               602.4428
 Red. masses --      2.9300                 2.4533                 2.1334
 Frc consts  --      0.4713                 0.4356                 0.4562
 IR Inten    --      5.1800                 4.1929                12.0957

                     19                     20                     21
                      A                      A                      A
 Frequencies --    659.6923               829.5676               831.6484
 Red. masses --      2.7449                 1.4908                 1.8843
 Frc consts  --      0.7038                 0.6045                 0.7679
 IR Inten    --     26.0083                 1.8635                13.3940

                     22                     23                     24
                      A                      A                      A
 Frequencies --    846.1796               864.0918               883.8851
 Red. masses --      2.4853                 2.0786                 1.9067
 Frc consts  --      1.0485                 0.9144                 0.8776
 IR Inten    --     14.8328                14.3540                 7.5827

                     25                     26                     27
                      A                      A                      A
 Frequencies --    903.5026               929.9674               933.8705
 Red. masses --      2.3498                 2.0757                 1.9938
 Frc consts  --      1.1301                 1.0577                 1.0245
 IR Inten    --     29.3728                21.8103                33.2782

                     28                     29                     30
                      A                      A                      A
 Frequencies --    960.9984               990.8833              1000.3907
 Red. masses --      2.1349                 1.7805                 1.4297
 Frc consts  --      1.1617                 1.0300                 0.8430
 IR Inten    --     18.2974                31.7924                23.1353

                     31                     32                     33
                      A                      A                      A
 Frequencies --   1016.7851              1033.5998              1056.2570
 Red. masses --      2.1205                 2.1022                 1.5528
 Frc consts  --      1.2917                 1.3232                 1.0207
 IR Inten    --     14.9795                44.6804               112.4526

                     34                     35                     36
                      A                      A                      A
 Frequencies --   1094.0342              1097.7135              1116.8579
 Red. masses --      2.8868                 2.8440                 4.0869
 Frc consts  --      2.0358                 2.0191                 3.0036
 IR Inten    --     84.5352                19.4940               283.1492

                     37                     38                     39
                      A                      A                      A
 Frequencies --   1131.2808              1155.8087              1173.5932
 Red. masses --      3.1386                 2.3021                 2.3451
 Frc consts  --      2.3666                 1.8119                 1.9031
 IR Inten    --     59.7248                10.5194                84.9567

                     40                     41                     42
                      A                      A                      A
 Frequencies --   1182.5812              1195.7578              1204.6475
 Red. masses --      2.0733                 1.6200                 1.5003
 Frc consts  --      1.7083                 1.3648                 1.2828
 IR Inten    --     83.8099                71.6492                31.8481

                     43                     44                     45
                      A                      A                      A
 Frequencies --   1224.4180              1238.6366              1270.6861
 Red. masses --      3.5904                 1.6308                 1.3062
 Frc consts  --      3.1714                 1.4742                 1.2426
 IR Inten    --    280.8093                43.9688                26.2373

                     46                     47                     48
                      A                      A                      A
 Frequencies --   1279.1429              1286.9471              1314.1939
 Red. masses --      1.2308                 1.3488                 1.1953
 Frc consts  --      1.1865                 1.3162                 1.2163
 IR Inten    --     10.4204                18.5581                29.4558

                     49                     50                     51
                      A                      A                      A
 Frequencies --   1326.8539              1334.7124              1347.5459
 Red. masses --      1.4006                 1.2855                 1.2789
 Frc consts  --      1.4529                 1.3492                 1.3682
 IR Inten    --      4.8718                 4.9952                 1.8249

                     52                     53                     54
                      A                      A                      A
 Frequencies --   1365.6210              1368.2971              1384.7624
 Red. masses --      1.2636                 1.4046                 1.5169
 Frc consts  --      1.3884                 1.5494                 1.7138
 IR Inten    --     12.1816                 6.9210                 2.7861

                     55                     56                     57
                      A                      A                      A
 Frequencies --   1387.1687              1397.2010              1400.3537
 Red. masses --      1.4484                 1.2398                 1.3989
 Frc consts  --      1.6421                 1.4260                 1.6163
 IR Inten    --      0.7570                52.9462                11.2187

                     58                     59                     60
                      A                      A                      A
 Frequencies --   1412.1665              1422.8813              1430.1511
 Red. masses --      1.4330                 1.3321                 1.3563
 Frc consts  --      1.6837                 1.5890                 1.6345
 IR Inten    --     92.3533                31.0289                 0.1225

                     61                     62                     63
                      A                      A                      A
 Frequencies --   1451.0075              1467.5914              1470.9869
 Red. masses --      1.3925                 1.1006                 1.1121
 Frc consts  --      1.7274                 1.3967                 1.4178
 IR Inten    --      9.9751                 5.4320                 5.0980

                     64                     65                     66
                      A                      A                      A
 Frequencies --   1473.7623              1482.6912              1490.5383
 Red. masses --      1.1185                 1.1378                 1.1324
 Frc consts  --      1.4313                 1.4737                 1.4822
 IR Inten    --      8.4584                10.6330                27.3766

                     67                     68                     69
                      A                      A                      A
 Frequencies --   1498.6133              1504.6607              1507.3221
 Red. masses --      1.0828                 1.0955                 1.1020
 Frc consts  --      1.4328                 1.4613                 1.4752
 IR Inten    --      3.0835                 5.0392                 7.9553

                     70                     71                     72
                      A                      A                      A
 Frequencies --   3009.5206              3035.9351              3036.5210
 Red. masses --      1.0828                 1.0700                 1.0703
 Frc consts  --      5.7781                 5.8105                 5.8144
 IR Inten    --     76.3692                28.4196                92.1483

                     73                     74                     75
                      A                      A                      A
 Frequencies --   3037.2371              3057.6707              3062.1075
 Red. masses --      1.0702                 1.0826                 1.0687
 Frc consts  --      5.8166                 5.9634                 5.9042
 IR Inten    --     91.8289                16.5874                22.9870

                     76                     77                     78
                      A                      A                      A
 Frequencies --   3069.5408              3070.4870              3073.0786
 Red. masses --      1.0617                 1.0613                 1.0616
 Frc consts  --      5.8940                 5.8950                 5.9068
 IR Inten    --     41.5238                19.3803                46.8257

                     79                     80                     81
                      A                      A                      A
 Frequencies --   3076.1650              3119.3339              3122.7369
 Red. masses --      1.0637                 1.0978                 1.1008
 Frc consts  --      5.9305                 6.2934                 6.3243
 IR Inten    --     60.8129                41.1175                59.3356

                     82                     83                     84
                      A                      A                      A
 Frequencies --   3123.7195              3130.3713              3132.6264
 Red. masses --      1.1035                 1.1034                 1.1016
 Frc consts  --      6.3438                 6.3705                 6.3693
 IR Inten    --     47.0394                49.0197                42.1060

                     85                     86                     87
                      A                      A                      A
 Frequencies --   3141.0695              3141.9646              3142.7160
 Red. masses --      1.0956                 1.0959                 1.0961
 Frc consts  --      6.3685                 6.3741                 6.3784
 IR Inten    --     37.1750                41.2682                33.7761

 - Thermochemistry -
 -------------------
 Temperature   298.150 Kelvin.  Pressure   1.00000 Atm.
 Atom     1 has atomic number  6 and mass  12.00000

 Molecular mass:   186.12559 amu.
 Principal axes and moments of inertia in atomic units:
                           1         2         3
     Eigenvalues --   831.464174923.288195393.25672
           X            1.00000  -0.00054  -0.00099
           Y            0.00053   0.99998  -0.00698
           Z            0.00099   0.00698   0.99998
 This molecule is an asymmetric top.
 Rotational symmetry number  1.
 Warning -- assumption of classical behavior for rotation
           may cause significant error
 Rotational temperatures (Kelvin)      0.10417     0.01759     0.01606
 Rotational constants (GHZ):           2.17056     0.36657     0.33463
 Zero-point vibrational energy     736364.2 (Joules/Mol)
                                  175.99527 (Kcal/Mol)
 Warning -- explicit consideration of  18 degrees of freedom as
           vibrations may cause significant error
 Vibrational temperatures:     51.78    84.42   108.54   211.65   304.73
          (Kelvin)            346.11   353.24   394.42   454.62   514.32
                              560.81   633.10   640.91   689.15   725.63
                              751.76   789.87   866.78   949.15  1193.56
                             1196.56  1217.46  1243.24  1271.71  1299.94
                             1338.02  1343.63  1382.66  1425.66  1439.34
                             1462.93  1487.12  1519.72  1574.07  1579.36
                             1606.91  1627.66  1662.95  1688.54  1701.47
                             1720.43  1733.22  1761.66  1782.12  1828.23
                             1840.40  1851.63  1890.83  1909.05  1920.35
                             1938.82  1964.82  1968.67  1992.36  1995.83
                             2010.26  2014.80  2031.79  2047.21  2057.67
                             2087.68  2111.54  2116.42  2120.42  2133.26
                             2144.55  2156.17  2164.87  2168.70  4330.03
                             4368.03  4368.88  4369.91  4399.31  4405.69
                             4416.38  4417.75  4421.47  4425.92  4488.03
                             4492.92  4494.34  4503.91  4507.15  4519.30
                             4520.59  4521.67

 Zero-point correction=                           0.280466 (Hartree/Particle)
 Thermal correction to Energy=                    0.292257
 Thermal correction to Enthalpy=                  0.293201
 Thermal correction to Gibbs Free Energy=         0.241851
 Sum of electronic and zero-point Energies=           -617.229051
 Sum of electronic and thermal Energies=              -617.217260
 Sum of electronic and thermal Enthalpies=            -617.216316
 Sum of electronic and thermal Free Energies=         -617.267666

                     E (Thermal)             CV                S
                      KCal/Mol        Cal/Mol-Kelvin    Cal/Mol-Kelvin
 Total                  183.394             46.855            108.075
 Electronic               0.000              0.000              0.000
 Translational            0.889              2.981             41.570
 Rotational               0.889              2.981             31.468
 Vibrational            181.617             40.893             35.037
 Vibration     1          0.594              1.982              5.469
 Vibration     2          0.596              1.974              4.501
 Vibration     3          0.599              1.965              4.006
 Vibration     4          0.617              1.906              2.709
 Vibration     5          0.643              1.823              2.028
 Vibration     6          0.658              1.778              1.799
 Vibration     7          0.660              1.770              1.763
 Vibration     8          0.676              1.721              1.570
 Vibration     9          0.703              1.643              1.331
 Vibration    10          0.733              1.560              1.133
 Vibration    11          0.758              1.492              1.001
 Vibration    12          0.800              1.383              0.827
 Vibration    13          0.805              1.371              0.810
 Vibration    14          0.835              1.297              0.713
 Vibration    15          0.860              1.240              0.647
 Vibration    16          0.877              1.200              0.604
 Vibration    17          0.904              1.142              0.546
 Vibration    18          0.961              1.027              0.445

 Optimization completed.
    -- Stationary point found.
 Normal termination of Gaussian 16 at Sat Mar  9 17:37:24 2019.
