 Gaussian 16, Revision B.01,
 Gaussian 16:  ES64L-G16RevB.01 20-Dec-2017

 ----------------------------------------------------------------------
 #M062X/6-311++G(2d,2p) opt=ModRedundant freq=noraman SCRF=(SMD,solvent
 =water)
 ----------------------------------------------------------------------

 -------------------------------
 4c1_b1_e3_4c1_PSI.inp_extract_1
 -------------------------------
 Symbolic Z-matrix:
 Charge =  0 Multiplicity = 1

 SCF Done:  E(RM062X) =  -617.508679835     A.U. after   12 cycles
 SCF Done:  E(RM062X) =  -617.510195964     A.U. after   10 cycles
 SCF Done:  E(RM062X) =  -617.510291402     A.U. after    9 cycles
 SCF Done:  E(RM062X) =  -617.510300709     A.U. after    8 cycles
 SCF Done:  E(RM062X) =  -617.510301755     A.U. after    8 cycles
 SCF Done:  E(RM062X) =  -617.510301934     A.U. after    7 cycles
 SCF Done:  E(RM062X) =  -617.510301951     A.U. after    7 cycles
 SCF Done:  E(RM062X) =  -617.510301943     A.U. after    6 cycles
 Optimization completed.
    -- Stationary point found.
 Normal termination of Gaussian 16 at Sat Mar  9 11:59:30 2019.

 ----------------------------------------------------------------------
 #N Geom=AllCheck Guess=TCheck SCRF=Check GenChk RM062X/6-311++G(2d,2p)
  Freq
 ----------------------------------------------------------------------

 Structure from the checkpoint file:  "4c1_b1_e3_4c1_PSI.inp_extract_1.chk"
 -------------------------------
 4c1_b1_e3_4c1_PSI.inp_extract_1
 -------------------------------
 Charge =  0 Multiplicity = 1

                         Standard orientation:
 ---------------------------------------------------------------------
 Center     Atomic      Atomic             Coordinates (Angstroms)
 Number     Number       Type             X           Y           Z
 ---------------------------------------------------------------------
      1          6           0        1.755592    1.153861    0.419832
      2          6           0        3.463107   -1.028214   -0.272774
      3          6           0       -2.260492    0.955301   -0.933512
      4          6           0        1.148817   -0.135046   -0.116105
      5          6           0        2.148873   -0.837566   -1.014935
      6          8           0       -1.615099   -1.072493    0.213877
      7          6           0       -3.575984    0.985632   -0.155216
      8          8           0        3.986681    0.213949    0.185306
      9          6           0       -3.953462   -0.424570    0.292493
     10          6           0       -1.198540    0.244979   -0.123034
     11          6           0       -2.788607   -1.059656    1.030326
     12          6           0        3.088643    0.851467    1.087750
     13          8           0       -0.032818    0.127125   -0.884025
     14          1           0        1.914451    1.841487   -0.413929
     15          1           0        1.091217    1.633109    1.139608
     16          1           0        4.218194   -1.462937   -0.923569
     17          1           0        3.318843   -1.693807    0.585650
     18          1           0       -2.384674    0.411486   -1.873052
     19          1           0       -1.913090    1.962373   -1.163361
     20          1           0        0.891128   -0.795119    0.717477
     21          1           0        1.761535   -1.806576   -1.330872
     22          1           0        2.318599   -0.227148   -1.904940
     23          1           0       -4.364220    1.424042   -0.765738
     24          1           0       -3.456470    1.621877    0.725773
     25          1           0       -4.198333   -1.038999   -0.576860
     26          1           0       -4.826114   -0.407699    0.946031
     27          1           0       -0.998149    0.786612    0.810779
     28          1           0       -2.576323   -0.507527    1.952842
     29          1           0       -2.988826   -2.097339    1.287363
     30          1           0        2.937808    0.204548    1.959329
     31          1           0        3.576644    1.765841    1.417259
 ---------------------------------------------------------------------

 SCF Done:  E(RM062X) =  -617.510301943     A.U. after    1 cycles

 The electronic state is 1-A.
 Alpha  occ. eigenvalues --  -19.63584 -19.62925 -19.62921 -10.63206 -10.58450
 Alpha  occ. eigenvalues --  -10.57644 -10.57640 -10.57485 -10.52542 -10.52532
 Alpha  occ. eigenvalues --  -10.52448 -10.52421 -10.52232  -1.19961  -1.16181
 Alpha  occ. eigenvalues --   -1.13608  -0.90727  -0.89452  -0.86134  -0.84527
 Alpha  occ. eigenvalues --   -0.74751  -0.72710  -0.72557  -0.69873  -0.65738
 Alpha  occ. eigenvalues --   -0.64528  -0.59935  -0.57536  -0.56893  -0.54342
 Alpha  occ. eigenvalues --   -0.54226  -0.52742  -0.51732  -0.50449  -0.50316
 Alpha  occ. eigenvalues --   -0.49393  -0.46350  -0.45568  -0.45069  -0.44180
 Alpha  occ. eigenvalues --   -0.42476  -0.41480  -0.40349  -0.39974  -0.39141
 Alpha  occ. eigenvalues --   -0.38996  -0.37294  -0.36979  -0.34318  -0.33158
 Alpha  occ. eigenvalues --   -0.32519
 Alpha virt. eigenvalues --    0.00483   0.01288   0.01373   0.01435   0.02724
 Alpha virt. eigenvalues --    0.02853   0.02913   0.03974   0.04049   0.04847
 Alpha virt. eigenvalues --    0.05194   0.05336   0.05825   0.05895   0.07276

 Mulliken charges:
               1
     1  C   -0.110900
     2  C   -0.309746
     3  C   -0.218149
     4  C   -0.310188
     5  C   -0.117321
     6  O   -0.407421
     7  C   -0.403883
     8  O   -0.365125
     9  C   -0.344346
    10  C   -0.055147
    11  C   -0.129776
    12  C   -0.370650
    13  O   -0.339535
    14  H    0.207127
    15  H    0.157078
    16  H    0.224739
    17  H    0.160193
    18  H    0.198837
    19  H    0.170877
    20  H    0.282625
    21  H    0.173863
    22  H    0.194448
    23  H    0.201680
    24  H    0.176270
    25  H    0.160515
    26  H    0.182600
    27  H    0.253565
    28  H    0.150910
    29  H    0.205756
    30  H    0.168299
    31  H    0.212806
 Sum of Mulliken charges =   0.00000

 Dipole moment (field-independent basis, Debye):
    X=             -3.1447    Y=              0.9334    Z=              3.1160  Tot=              4.5243
 Quadrupole moment (field-independent basis, Debye-Ang):
   XX=            -82.2204   YY=            -77.9081   ZZ=            -78.4649
   XY=             -5.3265   XZ=             -1.5555   YZ=              1.0910

  Exact polarizability: 184.511  -0.079 172.463  -2.091   0.794 171.426
 Approx polarizability: 146.329   0.792 143.157  -2.324   0.780 143.202

                      1                      2                      3
                      A                      A                      A
 Frequencies --     27.8212                47.3618                71.5035
 Red. masses --      2.9725                 4.4224                 4.0125
 Frc consts  --      0.0014                 0.0058                 0.0121
 IR Inten    --      1.1260                 2.1230                 0.2703

                      4                      5                      6
                      A                      A                      A
 Frequencies --    155.0347               192.6215               238.2695
 Red. masses --      3.4620                 3.6087                 1.8136
 Frc consts  --      0.0490                 0.0789                 0.0607
 IR Inten    --      8.4043                 2.8250                 0.5946

                      7                      8                      9
                      A                      A                      A
 Frequencies --    245.1196               273.5730               339.6620
 Red. masses --      2.4511                 3.3872                 2.1001
 Frc consts  --      0.0868                 0.1494                 0.1428
 IR Inten    --      7.1899                 2.0889                 7.8162

                     10                     11                     12
                      A                      A                      A
 Frequencies --    360.1690               397.0684               440.7150
 Red. masses --      2.3917                 3.3282                 3.8320
 Frc consts  --      0.1828                 0.3092                 0.4385
 IR Inten    --     15.9714                 5.6988                 6.8266

                     13                     14                     15
                      A                      A                      A
 Frequencies --    445.2246               479.8953               492.8980
 Red. masses --      2.4286                 3.0308                 3.5176
 Frc consts  --      0.2836                 0.4112                 0.5035
 IR Inten    --      1.3273                 0.2044                 1.8589

                     16                     17                     18
                      A                      A                      A
 Frequencies --    513.7216               550.8273               592.4955
 Red. masses --      2.6973                 2.4015                 1.9292
 Frc consts  --      0.4194                 0.4293                 0.3990
 IR Inten    --      3.3044                 0.8233                12.4506

                     19                     20                     21
                      A                      A                      A
 Frequencies --    668.2018               830.0605               832.3032
 Red. masses --      2.8884                 1.5014                 1.8328
 Frc consts  --      0.7599                 0.6095                 0.7481
 IR Inten    --     27.3872                 1.1784                16.3698

                     22                     23                     24
                      A                      A                      A
 Frequencies --    844.0470               862.6359               883.8914
 Red. masses --      2.5939                 2.0009                 1.8764
 Frc consts  --      1.0888                 0.8773                 0.8637
 IR Inten    --     14.6390                10.8018                 8.4153

                     25                     26                     27
                      A                      A                      A
 Frequencies --    899.6067               932.6577               934.2725
 Red. masses --      2.4672                 2.3704                 1.7907
 Frc consts  --      1.1764                 1.2148                 0.9209
 IR Inten    --     29.6567                59.9203                 2.5293

                     28                     29                     30
                      A                      A                      A
 Frequencies --    959.9142               993.8738              1003.7522
 Red. masses --      2.1270                 1.7610                 1.4685
 Frc consts  --      1.1547                 1.0249                 0.8717
 IR Inten    --     16.7224                34.6361                17.0062

                     31                     32                     33
                      A                      A                      A
 Frequencies --   1016.3452              1035.3849              1056.0588
 Red. masses --      2.0333                 2.1620                 1.5668
 Frc consts  --      1.2375                 1.3656                 1.0295
 IR Inten    --     17.6025                43.1069               121.5293

                     34                     35                     36
                      A                      A                      A
 Frequencies --   1091.8135              1099.8573              1116.8702
 Red. masses --      2.5770                 3.1003                 4.3111
 Frc consts  --      1.8099                 2.2097                 3.1684
 IR Inten    --     61.0774                41.6909               292.8720

                     37                     38                     39
                      A                      A                      A
 Frequencies --   1131.4437              1156.2560              1170.9343
 Red. masses --      3.1833                 2.3211                 2.6196
 Frc consts  --      2.4010                 1.8283                 2.1162
 IR Inten    --     72.3986                25.9209                83.2846

                     40                     41                     42
                      A                      A                      A
 Frequencies --   1183.7280              1195.8410              1205.7866
 Red. masses --      1.9168                 1.5339                 1.5626
 Frc consts  --      1.5824                 1.2924                 1.3386
 IR Inten    --     59.2480                46.1119                80.5837

                     43                     44                     45
                      A                      A                      A
 Frequencies --   1221.4885              1239.2988              1271.3456
 Red. masses --      3.5565                 1.6256                 1.3005
 Frc consts  --      3.1264                 1.4710                 1.2385
 IR Inten    --    228.5306                43.4648                23.0808

                     46                     47                     48
                      A                      A                      A
 Frequencies --   1278.8979              1286.8582              1314.3068
 Red. masses --      1.2339                 1.3035                 1.1996
 Frc consts  --      1.1890                 1.2718                 1.2209
 IR Inten    --     13.1604                 6.5255                22.6960

                     49                     50                     51
                      A                      A                      A
 Frequencies --   1324.7344              1339.8831              1348.0840
 Red. masses --      1.3694                 1.3094                 1.2932
 Frc consts  --      1.4159                 1.3851                 1.3846
 IR Inten    --     12.7348                 4.4916                 1.9254

                     52                     53                     54
                      A                      A                      A
 Frequencies --   1362.1888              1368.1717              1385.5376
 Red. masses --      1.2001                 1.4392                 1.5024
 Frc consts  --      1.3120                 1.5872                 1.6994
 IR Inten    --     15.7997                 1.5922                 5.3580

                     55                     56                     57
                      A                      A                      A
 Frequencies --   1388.4413              1396.0791              1402.7179
 Red. masses --      1.3330                 1.2532                 1.4581
 Frc consts  --      1.5140                 1.4391                 1.6903
 IR Inten    --      9.0231                29.0167                23.0484

                     58                     59                     60
                      A                      A                      A
 Frequencies --   1410.6206              1421.6526              1429.6142
 Red. masses --      1.5208                 1.3335                 1.3400
 Frc consts  --      1.7830                 1.5880                 1.6136
 IR Inten    --     84.3275                13.2961                 1.7592

                     61                     62                     63
                      A                      A                      A
 Frequencies --   1448.9591              1467.3388              1472.0796
 Red. masses --      1.4649                 1.1013                 1.1113
 Frc consts  --      1.8120                 1.3971                 1.4189
 IR Inten    --     26.5550                 5.6131                 4.3010

                     64                     65                     66
                      A                      A                      A
 Frequencies --   1472.8845              1481.6594              1488.6323
 Red. masses --      1.1199                 1.1331                 1.1343
 Frc consts  --      1.4314                 1.4656                 1.4810
 IR Inten    --      9.4503                 8.2661                28.8582

                     67                     68                     69
                      A                      A                      A
 Frequencies --   1497.9136              1505.8158              1507.2350
 Red. masses --      1.0836                 1.0951                 1.1016
 Frc consts  --      1.4325                 1.4630                 1.4744
 IR Inten    --      3.1922                 5.0963                 8.4219

                     70                     71                     72
                      A                      A                      A
 Frequencies --   3021.8546              3035.0574              3035.6854
 Red. masses --      1.0826                 1.0701                 1.0703
 Frc consts  --      5.8248                 5.8077                 5.8114
 IR Inten    --     55.2136                27.8315                34.0884

                     73                     74                     75
                      A                      A                      A
 Frequencies --   3035.7941              3058.4631              3060.5171
 Red. masses --      1.0703                 1.0822                 1.0687
 Frc consts  --      5.8118                 5.9642                 5.8981
 IR Inten    --    150.7838                12.9081                21.9741

                     76                     77                     78
                      A                      A                      A
 Frequencies --   3069.0813              3070.4324              3071.2469
 Red. masses --      1.0618                 1.0611                 1.0616
 Frc consts  --      5.8925                 5.8937                 5.8999
 IR Inten    --     37.0202                 4.1763                61.6572

                     79                     80                     81
                      A                      A                      A
 Frequencies --   3074.6193              3118.2018              3121.4873
 Red. masses --      1.0633                 1.0973                 1.1014
 Frc consts  --      5.9221                 6.2860                 6.3229
 IR Inten    --     63.9655                40.0615                59.2402

                     82                     83                     84
                      A                      A                      A
 Frequencies --   3125.3238              3126.5940              3128.3760
 Red. masses --      1.1024                 1.1034                 1.1033
 Frc consts  --      6.3444                 6.3554                 6.3619
 IR Inten    --     34.1697                55.6605                52.0884

                     85                     86                     87
                      A                      A                      A
 Frequencies --   3140.9595              3141.3361              3143.4638
 Red. masses --      1.0954                 1.0959                 1.0958
 Frc consts  --      6.3669                 6.3714                 6.3798
 IR Inten    --     41.5806                38.5786                34.4186

 - Thermochemistry -
 -------------------
 Temperature   298.150 Kelvin.  Pressure   1.00000 Atm.
 Atom     1 has atomic number  6 and mass  12.00000

 Molecular mass:   186.12559 amu.
 Principal axes and moments of inertia in atomic units:
                           1         2         3
     Eigenvalues --   835.898965124.211315273.56080
           X            0.99998  -0.00614  -0.00106
           Y            0.00616   0.99978   0.02014
           Z            0.00094  -0.02015   0.99980
 This molecule is an asymmetric top.
 Rotational symmetry number  1.
 Warning -- assumption of classical behavior for rotation
           may cause significant error
 Rotational temperatures (Kelvin)      0.10362     0.01690     0.01642
 Rotational constants (GHZ):           2.15904     0.35220     0.34222
 Zero-point vibrational energy     736184.6 (Joules/Mol)
                                  175.95234 (Kcal/Mol)
 Warning -- explicit consideration of  18 degrees of freedom as
           vibrations may cause significant error
 Vibrational temperatures:     40.03    68.14   102.88   223.06   277.14
          (Kelvin)            342.82   352.67   393.61   488.70   518.20
                              571.29   634.09   640.58   690.46   709.17
                              739.13   792.52   852.47   961.39  1194.27
                             1197.50  1214.40  1241.14  1271.72  1294.33
                             1341.89  1344.21  1381.10  1429.96  1444.18
                             1462.29  1489.69  1519.43  1570.88  1582.45
                             1606.93  1627.90  1663.59  1684.71  1703.12
                             1720.55  1734.86  1757.45  1783.07  1829.18
                             1840.05  1851.50  1890.99  1906.00  1927.79
                             1939.59  1959.89  1968.49  1993.48  1997.66
                             2008.65  2018.20  2029.57  2045.44  2056.90
                             2084.73  2111.17  2117.99  2119.15  2131.78
                             2141.81  2155.16  2166.53  2168.57  4347.77
                             4366.77  4367.67  4367.83  4400.45  4403.40
                             4415.72  4417.67  4418.84  4423.69  4486.40
                             4491.12  4496.64  4498.47  4501.04  4519.14
                             4519.68  4522.74

 Zero-point correction=                           0.280398 (Hartree/Particle)
 Thermal correction to Energy=                    0.292235
 Thermal correction to Enthalpy=                  0.293179
 Thermal correction to Gibbs Free Energy=         0.241330
 Sum of electronic and zero-point Energies=           -617.229904
 Sum of electronic and thermal Energies=              -617.218067
 Sum of electronic and thermal Enthalpies=            -617.217123
 Sum of electronic and thermal Free Energies=         -617.268972

                     E (Thermal)             CV                S
                      KCal/Mol        Cal/Mol-Kelvin    Cal/Mol-Kelvin
 Total                  183.380             46.861            109.126
 Electronic               0.000              0.000              0.000
 Translational            0.889              2.981             41.570
 Rotational               0.889              2.981             31.491
 Vibrational            181.603             40.900             36.065
 Vibration     1          0.593              1.984              5.979
 Vibration     2          0.595              1.979              4.925
 Vibration     3          0.598              1.968              4.112
 Vibration     4          0.620              1.897              2.610
 Vibration     5          0.635              1.850              2.202
 Vibration     6          0.656              1.782              1.816
 Vibration     7          0.660              1.771              1.765
 Vibration     8          0.676              1.722              1.574
 Vibration     9          0.720              1.596              1.214
 Vibration    10          0.735              1.554              1.121
 Vibration    11          0.764              1.476              0.973
 Vibration    12          0.801              1.381              0.824
 Vibration    13          0.805              1.371              0.810
 Vibration    14          0.836              1.295              0.710
 Vibration    15          0.849              1.266              0.676
 Vibration    16          0.869              1.220              0.625
 Vibration    17          0.906              1.138              0.542
 Vibration    18          0.950              1.048              0.463

 Optimization completed.
    -- Stationary point found.
 Normal termination of Gaussian 16 at Sat Mar  9 13:02:13 2019.
