 Gaussian 16, Revision B.01,
 Gaussian 16:  ES64L-G16RevB.01 20-Dec-2017

 ----------------------------------------------------------------------
 #M062X/6-311++G(2d,2p) opt=ModRedundant freq=noraman SCRF=(SMD,solvent
 =water)
 ----------------------------------------------------------------------

 -------------------------------
 4c1_b1_e3_4c1_PSI.inp_extract_4
 -------------------------------
 Symbolic Z-matrix:
 Charge =  0 Multiplicity = 1

 SCF Done:  E(RM062X) =  -617.507041264     A.U. after   12 cycles
 SCF Done:  E(RM062X) =  -617.508659663     A.U. after   11 cycles
 SCF Done:  E(RM062X) =  -617.508867214     A.U. after   10 cycles
 SCF Done:  E(RM062X) =  -617.508950971     A.U. after    9 cycles
 SCF Done:  E(RM062X) =  -617.508954614     A.U. after    8 cycles
 SCF Done:  E(RM062X) =  -617.508954846     A.U. after    7 cycles
 Optimization completed.
    -- Stationary point found.
 Normal termination of Gaussian 16 at Sat Mar  9 12:34:30 2019.

 ----------------------------------------------------------------------
 #N Geom=AllCheck Guess=TCheck SCRF=Check GenChk RM062X/6-311++G(2d,2p)
  Freq
 ----------------------------------------------------------------------

 Structure from the checkpoint file:  "4c1_b1_e3_4c1_PSI.inp_extract_4.chk"
 -------------------------------
 4c1_b1_e3_4c1_PSI.inp_extract_4
 -------------------------------
 Charge =  0 Multiplicity = 1

                         Standard orientation:
 ---------------------------------------------------------------------
 Center     Atomic      Atomic             Coordinates (Angstroms)
 Number     Number       Type             X           Y           Z
 ---------------------------------------------------------------------
      1          6           0       -1.399989    0.804463    0.646368
      2          6           0       -3.646759   -0.558311   -0.501032
      3          6           0        2.308969   -1.312340    0.419263
      4          6           0       -1.175393   -0.303443   -0.373445
      5          6           0       -2.327001   -1.291408   -0.327906
      6          8           0        1.467402    0.580072   -0.826685
      7          6           0        3.580620   -0.533564    0.757410
      8          8           0       -3.809309    0.448481    0.492461
      9          6           0        3.836305    0.538951   -0.299528
     10          6           0        1.164275   -0.344842    0.208307
     11          6           0        2.593137    1.391275   -0.483870
     12          6           0       -2.773011    1.419986    0.411744
     13          8           0        0.029278   -1.060433   -0.178535
     14          1           0       -1.353284    0.392725    1.657502
     15          1           0       -0.648582    1.589357    0.556347
     16          1           0       -4.487952   -1.239357   -0.395615
     17          1           0       -3.696523   -0.094031   -1.492242
     18          1           0        2.443442   -1.882777   -0.502563
     19          1           0        2.045426   -2.005225    1.218080
     20          1           0       -1.134635    0.150596   -1.368843
     21          1           0       -2.215897   -2.038502   -1.114479
     22          1           0       -2.318388   -1.803062    0.637025
     23          1           0        4.428514   -1.212826    0.833948
     24          1           0        3.459317   -0.054999    1.732766
     25          1           0        4.086353    0.069417   -1.253601
     26          1           0        4.671332    1.179178   -0.013716
     27          1           0        0.975918    0.221814    1.127767
     28          1           0        2.367982    1.941504    0.437031
     29          1           0        2.709055    2.107314   -1.294228
     30          1           0       -2.806384    1.897885   -0.573802
     31          1           0       -2.991574    2.171427    1.166826
 ---------------------------------------------------------------------

 SCF Done:  E(RM062X) =  -617.508954846     A.U. after    1 cycles

 The electronic state is 1-A.
 Alpha  occ. eigenvalues --  -19.63528 -19.62981 -19.62933 -10.63102 -10.58520
 Alpha  occ. eigenvalues --  -10.57705 -10.57620 -10.57514 -10.52639 -10.52540
 Alpha  occ. eigenvalues --  -10.52518 -10.52420 -10.52243  -1.19920  -1.16224
 Alpha  occ. eigenvalues --   -1.13513  -0.90785  -0.89385  -0.86253  -0.84580
 Alpha  occ. eigenvalues --   -0.75135  -0.73235  -0.72074  -0.69592  -0.65485
 Alpha  occ. eigenvalues --   -0.64625  -0.59885  -0.57372  -0.56811  -0.54372
 Alpha  occ. eigenvalues --   -0.54175  -0.52652  -0.52197  -0.50956  -0.50091
 Alpha  occ. eigenvalues --   -0.49531  -0.46474  -0.45623  -0.44345  -0.43861
 Alpha  occ. eigenvalues --   -0.43227  -0.41293  -0.40789  -0.39988  -0.39126
 Alpha  occ. eigenvalues --   -0.38186  -0.37222  -0.36937  -0.34597  -0.33186
 Alpha  occ. eigenvalues --   -0.32422
 Alpha virt. eigenvalues --    0.00486   0.01303   0.01339   0.01495   0.02698
 Alpha virt. eigenvalues --    0.02879   0.02998   0.03974   0.04112   0.04808
 Alpha virt. eigenvalues --    0.05108   0.05556   0.05795   0.06027   0.07229

 Mulliken charges:
               1
     1  C   -0.110707
     2  C   -0.284711
     3  C   -0.390916
     4  C   -0.186789
     5  C   -0.231394
     6  O   -0.388864
     7  C   -0.417998
     8  O   -0.368842
     9  C   -0.376427
    10  C    0.028838
    11  C   -0.086351
    12  C   -0.354673
    13  O   -0.407242
    14  H    0.226272
    15  H    0.200885
    16  H    0.221431
    17  H    0.158446
    18  H    0.197849
    19  H    0.182755
    20  H    0.279809
    21  H    0.183096
    22  H    0.194768
    23  H    0.206473
    24  H    0.173365
    25  H    0.165102
    26  H    0.179574
    27  H    0.267937
    28  H    0.148482
    29  H    0.199894
    30  H    0.180270
    31  H    0.209666
 Sum of Mulliken charges =  -0.00000

 Dipole moment (field-independent basis, Debye):
    X=              2.8814    Y=              1.7223    Z=              0.7921  Tot=              3.4491
 Quadrupole moment (field-independent basis, Debye-Ang):
   XX=            -79.4580   YY=            -77.3851   ZZ=            -80.4243
   XY=              4.1632   XZ=              8.4109   YZ=              0.4965

  Exact polarizability: 184.377   3.204 175.889   2.114   0.390 167.899
 Approx polarizability: 145.988   2.599 144.632   0.664   0.570 142.170

                      1                      2                      3
                      A                      A                      A
 Frequencies --     45.9541                59.2062                88.4518
 Red. masses --      3.2798                 4.2416                 3.6630
 Frc consts  --      0.0041                 0.0088                 0.0169
 IR Inten    --      1.9982                 2.3425                 2.3763

                      4                      5                      6
                      A                      A                      A
 Frequencies --    162.5228               199.1828               246.3550
 Red. masses --      3.6250                 3.5125                 1.8157
 Frc consts  --      0.0564                 0.0821                 0.0649
 IR Inten    --      7.3567                 8.8362                 2.8797

                      7                      8                      9
                      A                      A                      A
 Frequencies --    251.1510               275.7566               314.8977
 Red. masses --      2.7760                 3.0851                 3.1609
 Frc consts  --      0.1032                 0.1382                 0.1847
 IR Inten    --      7.0395                 4.3595                 3.5418

                     10                     11                     12
                      A                      A                      A
 Frequencies --    361.1829               381.3977               437.1853
 Red. masses --      2.0755                 2.3232                 3.5635
 Frc consts  --      0.1595                 0.1991                 0.4013
 IR Inten    --      7.9514                 4.4766                 4.2334

                     13                     14                     15
                      A                      A                      A
 Frequencies --    461.8157               479.4066               489.5008
 Red. masses --      2.8396                 2.8539                 2.6769
 Frc consts  --      0.3568                 0.3865                 0.3779
 IR Inten    --      1.6485                 0.6062                 0.3616

                     16                     17                     18
                      A                      A                      A
 Frequencies --    525.8149               553.4422               614.7484
 Red. masses --      2.6753                 2.3362                 2.5632
 Frc consts  --      0.4358                 0.4216                 0.5707
 IR Inten    --      7.0937                 3.1024                10.9081

                     19                     20                     21
                      A                      A                      A
 Frequencies --    662.3832               832.8444               834.2811
 Red. masses --      2.8391                 1.6734                 1.6544
 Frc consts  --      0.7339                 0.6839                 0.6785
 IR Inten    --     41.1715                 4.0854                10.2098

                     22                     23                     24
                      A                      A                      A
 Frequencies --    840.8401               863.4282               882.5953
 Red. masses --      2.4795                 1.9621                 1.9802
 Frc consts  --      1.0328                 0.8618                 0.9088
 IR Inten    --     11.9406                15.7605                23.6675

                     25                     26                     27
                      A                      A                      A
 Frequencies --    901.2277               932.9606               941.4015
 Red. masses --      2.4705                 2.2788                 1.7751
 Frc consts  --      1.1822                 1.1687                 0.9269
 IR Inten    --     21.8406                48.9547                 1.9990

                     28                     29                     30
                      A                      A                      A
 Frequencies --    958.3056               989.1069              1004.4368
 Red. masses --      2.1775                 1.8063                 1.5267
 Frc consts  --      1.1782                 1.0412                 0.9075
 IR Inten    --     13.2480                27.9238                31.9331

                     31                     32                     33
                      A                      A                      A
 Frequencies --   1012.6265              1039.5800              1058.2466
 Red. masses --      1.9762                 2.2165                 1.5211
 Frc consts  --      1.1940                 1.4113                 1.0036
 IR Inten    --     19.3596                39.4998                85.2599

                     34                     35                     36
                      A                      A                      A
 Frequencies --   1087.9829              1099.0323              1120.4570
 Red. masses --      3.1356                 2.5784                 3.9471
 Frc consts  --      2.1868                 1.8349                 2.9196
 IR Inten    --     32.3644                62.7041               292.4738

                     37                     38                     39
                      A                      A                      A
 Frequencies --   1134.3074              1158.2861              1168.0020
 Red. masses --      3.2153                 2.3648                 2.6049
 Frc consts  --      2.4374                 1.8693                 2.0938
 IR Inten    --     39.6636                19.7090                31.7526

                     40                     41                     42
                      A                      A                      A
 Frequencies --   1188.1894              1196.2687              1206.2109
 Red. masses --      1.9833                 1.3307                 1.6701
 Frc consts  --      1.6498                 1.1220                 1.4317
 IR Inten    --     68.5103                 8.1460                55.9969

                     43                     44                     45
                      A                      A                      A
 Frequencies --   1228.2094              1240.0634              1274.0742
 Red. masses --      3.7595                 1.6650                 1.3201
 Frc consts  --      3.3413                 1.5085                 1.2625
 IR Inten    --    386.3378                54.8585                 3.2754

                     46                     47                     48
                      A                      A                      A
 Frequencies --   1278.3390              1281.3865              1315.6934
 Red. masses --      1.2311                 1.2596                 1.2019
 Frc consts  --      1.1853                 1.2186                 1.2259
 IR Inten    --      7.8010                 8.9434                32.1070

                     49                     50                     51
                      A                      A                      A
 Frequencies --   1322.0360              1343.6760              1351.0175
 Red. masses --      1.3579                 1.3383                 1.2835
 Frc consts  --      1.3983                 1.4236                 1.3802
 IR Inten    --     26.0391                12.5725                 2.6685

                     52                     53                     54
                      A                      A                      A
 Frequencies --   1362.0882              1367.4018              1384.4142
 Red. masses --      1.2045                 1.4276                 1.5195
 Frc consts  --      1.3167                 1.5727                 1.7159
 IR Inten    --      3.5458                 0.8953                 5.3443

                     55                     56                     57
                      A                      A                      A
 Frequencies --   1390.7650              1396.4541              1407.0470
 Red. masses --      1.2804                 1.2677                 1.4918
 Frc consts  --      1.4591                 1.4565                 1.7401
 IR Inten    --      2.0675                51.1614                30.8115

                     58                     59                     60
                      A                      A                      A
 Frequencies --   1412.8239              1423.6785              1429.7807
 Red. masses --      1.4888                 1.3172                 1.3323
 Frc consts  --      1.7509                 1.5730                 1.6047
 IR Inten    --     25.2055                22.3729                 6.4117

                     61                     62                     63
                      A                      A                      A
 Frequencies --   1443.2083              1468.7998              1470.0444
 Red. masses --      1.5361                 1.1008                 1.1093
 Frc consts  --      1.8850                 1.3992                 1.4124
 IR Inten    --     32.1800                 4.8413                 4.2138

                     64                     65                     66
                      A                      A                      A
 Frequencies --   1474.0630              1481.9844              1490.6778
 Red. masses --      1.1113                 1.1212                 1.1304
 Frc consts  --      1.4227                 1.4508                 1.4799
 IR Inten    --      7.6216                 6.8990                29.4987

                     67                     68                     69
                      A                      A                      A
 Frequencies --   1496.8303              1505.8627              1506.5161
 Red. masses --      1.0834                 1.1032                 1.0952
 Frc consts  --      1.4301                 1.4739                 1.4646
 IR Inten    --      3.3166                 6.7082                 5.6800

                     70                     71                     72
                      A                      A                      A
 Frequencies --   3033.5616              3036.8381              3037.6427
 Red. masses --      1.0715                 1.0702                 1.0716
 Frc consts  --      5.8094                 5.8154                 5.8259
 IR Inten    --     36.3363                48.7373                48.2590

                     73                     74                     75
                      A                      A                      A
 Frequencies --   3038.7158              3045.4573              3062.1400
 Red. masses --      1.0792                 1.0828                 1.0685
 Frc consts  --      5.8711                 5.9170                 5.9031
 IR Inten    --    126.5853                42.7305                23.4812

                     76                     77                     78
                      A                      A                      A
 Frequencies --   3069.1858              3070.2375              3073.5296
 Red. masses --      1.0616                 1.0616                 1.0615
 Frc consts  --      5.8918                 5.8962                 5.9080
 IR Inten    --     24.4297                36.4962                53.6682

                     79                     80                     81
                      A                      A                      A
 Frequencies --   3073.8333              3119.2910              3122.7167
 Red. masses --      1.0614                 1.0974                 1.1014
 Frc consts  --      5.9088                 6.2914                 6.3277
 IR Inten    --     57.5462                40.1708                58.8143

                     82                     83                     84
                      A                      A                      A
 Frequencies --   3125.1851              3126.0245              3129.9920
 Red. masses --      1.1026                 1.1034                 1.1038
 Frc consts  --      6.3449                 6.3528                 6.3714
 IR Inten    --     33.4836                49.6937                51.0304

                     85                     86                     87
                      A                      A                      A
 Frequencies --   3141.6367              3142.4589              3144.3754
 Red. masses --      1.0955                 1.0956                 1.0960
 Frc consts  --      6.3706                 6.3747                 6.3844
 IR Inten    --     39.3476                41.8484                34.5006

 - Thermochemistry -
 -------------------
 Temperature   298.150 Kelvin.  Pressure   1.00000 Atm.
 Atom     1 has atomic number  6 and mass  12.00000

 Molecular mass:   186.12559 amu.
 Principal axes and moments of inertia in atomic units:
                           1         2         3
     Eigenvalues --   847.039564775.491755175.32240
           X            0.99996   0.00281   0.00800
           Y           -0.00283   0.99999   0.00202
           Z           -0.00800  -0.00204   0.99997
 This molecule is an asymmetric top.
 Rotational symmetry number  1.
 Warning -- assumption of classical behavior for rotation
           may cause significant error
 Rotational temperatures (Kelvin)      0.10225     0.01814     0.01674
 Rotational constants (GHZ):           2.13065     0.37792     0.34872
 Zero-point vibrational energy     736904.0 (Joules/Mol)
                                  176.12429 (Kcal/Mol)
 Warning -- explicit consideration of  18 degrees of freedom as
           vibrations may cause significant error
 Vibrational temperatures:     66.12    85.18   127.26   233.83   286.58
          (Kelvin)            354.45   361.35   396.75   453.07   519.66
                              548.75   629.01   664.45   689.76   704.28
                              756.53   796.28   884.49   953.02  1198.28
                             1200.34  1209.78  1242.28  1269.86  1296.67
                             1342.32  1354.47  1378.79  1423.10  1445.16
                             1456.94  1495.72  1522.58  1565.36  1581.26
                             1612.09  1632.02  1666.52  1680.49  1709.54
                             1721.16  1735.47  1767.12  1784.17  1833.11
                             1839.24  1843.63  1892.99  1902.11  1933.25
                             1943.81  1959.74  1967.39  1991.86  2001.00
                             2009.19  2024.43  2032.74  2048.36  2057.14
                             2076.45  2113.28  2115.07  2120.85  2132.25
                             2144.75  2153.60  2166.60  2167.54  4364.62
                             4369.33  4370.49  4372.03  4381.73  4405.74
                             4415.87  4417.39  4422.12  4422.56  4487.96
                             4492.89  4496.44  4497.65  4503.36  4520.11
                             4521.30  4524.05

 Zero-point correction=                           0.280672 (Hartree/Particle)
 Thermal correction to Energy=                    0.292379
 Thermal correction to Enthalpy=                  0.293323
 Thermal correction to Gibbs Free Energy=         0.242479
 Sum of electronic and zero-point Energies=           -617.228283
 Sum of electronic and thermal Energies=              -617.216576
 Sum of electronic and thermal Enthalpies=            -617.215631
 Sum of electronic and thermal Free Energies=         -617.266476

                     E (Thermal)             CV                S
                      KCal/Mol        Cal/Mol-Kelvin    Cal/Mol-Kelvin
 Total                  183.471             46.768            107.011
 Electronic               0.000              0.000              0.000
 Translational            0.889              2.981             41.570
 Rotational               0.889              2.981             31.416
 Vibrational            181.693             40.806             34.025
 Vibration     1          0.595              1.979              4.984
 Vibration     2          0.597              1.974              4.483
 Vibration     3          0.601              1.957              3.694
 Vibration     4          0.623              1.888              2.520
 Vibration     5          0.637              1.841              2.141
 Vibration     6          0.661              1.769              1.757
 Vibration     7          0.663              1.761              1.722
 Vibration     8          0.677              1.718              1.560
 Vibration     9          0.702              1.645              1.336
 Vibration    10          0.735              1.552              1.117
 Vibration    11          0.751              1.510              1.034
 Vibration    12          0.797              1.389              0.836
 Vibration    13          0.820              1.335              0.761
 Vibration    14          0.836              1.296              0.712
 Vibration    15          0.845              1.273              0.685
 Vibration    16          0.881              1.193              0.597
 Vibration    17          0.909              1.132              0.537
 Vibration    18          0.974              1.001              0.425

 Optimization completed.
    -- Stationary point found.
 Normal termination of Gaussian 16 at Sat Mar  9 13:37:32 2019.
