 Gaussian 16, Revision B.01,
 Gaussian 16:  ES64L-G16RevB.01 20-Dec-2017

 ----------------------------------------------------------------------
 #M062X/6-311++G(2d,2p) opt=ModRedundant freq=noraman SCRF=(SMD,solvent
 =water)
 ----------------------------------------------------------------------

 -------------------------------
 4c1_b1_e3_4c1_PSI.inp_extract_7
 -------------------------------
 Symbolic Z-matrix:
 Charge =  0 Multiplicity = 1

 SCF Done:  E(RM062X) =  -617.502066626     A.U. after   12 cycles
 SCF Done:  E(RM062X) =  -617.503472971     A.U. after   11 cycles
 SCF Done:  E(RM062X) =  -617.503729443     A.U. after   10 cycles
 SCF Done:  E(RM062X) =  -617.503896766     A.U. after   10 cycles
 SCF Done:  E(RM062X) =  -617.503905315     A.U. after    8 cycles
 SCF Done:  E(RM062X) =  -617.503905880     A.U. after    7 cycles
 Optimization completed.
    -- Stationary point found.
 Normal termination of Gaussian 16 at Sat Mar  9 13:29:36 2019.

 ----------------------------------------------------------------------
 #N Geom=AllCheck Guess=TCheck SCRF=Check GenChk RM062X/6-311++G(2d,2p)
  Freq
 ----------------------------------------------------------------------

 Structure from the checkpoint file:  "4c1_b1_e3_4c1_PSI.inp_extract_7.chk"
 -------------------------------
 4c1_b1_e3_4c1_PSI.inp_extract_7
 -------------------------------
 Charge =  0 Multiplicity = 1

                         Standard orientation:
 ---------------------------------------------------------------------
 Center     Atomic      Atomic             Coordinates (Angstroms)
 Number     Number       Type             X           Y           Z
 ---------------------------------------------------------------------
      1          6           0       -1.373131    1.002656    0.159749
      2          6           0       -3.630058   -0.757253    0.009950
      3          6           0        2.206959   -1.382893    0.131355
      4          6           0       -1.262950   -0.303521   -0.616245
      5          6           0       -2.219008   -1.323100   -0.017326
      6          8           0        1.582921    0.776520   -0.750794
      7          6           0        3.432620   -0.763336    0.802884
      8          8           0       -3.682829    0.472117    0.726272
      9          6           0        3.853402    0.504642    0.063490
     10          6           0        1.114186   -0.342554   -0.005423
     11          6           0        2.662081    1.434395   -0.084452
     12          6           0       -2.830550    1.447308    0.137059
     13          8           0        0.046460   -0.900312   -0.706102
     14          1           0       -1.076965    0.862851    1.200121
     15          1           0       -0.752726    1.783255   -0.277925
     16          1           0       -4.316146   -1.438008    0.508551
     17          1           0       -3.987497   -0.590211   -1.012410
     18          1           0        2.458865   -1.740248   -0.869895
     19          1           0        1.822821   -2.223083    0.709443
     20          1           0       -1.563413   -0.103811   -1.648503
     21          1           0       -2.207131   -2.241683   -0.604921
     22          1           0       -1.894770   -1.559443    0.999154
     23          1           0        4.248978   -1.483744    0.834528
     24          1           0        3.184317   -0.509867    1.836996
     25          1           0        4.227420    0.249770   -0.930714
     26          1           0        4.650331    1.023333    0.597159
     27          1           0        0.805222    0.008701    0.984427
     28          1           0        2.320236    1.774647    0.900038
     29          1           0        2.902530    2.308091   -0.686047
     30          1           0       -3.155049    1.633364   -0.892821
     31          1           0       -2.960744    2.361416    0.711561
 ---------------------------------------------------------------------

 SCF Done:  E(RM062X) =  -617.503905880     A.U. after    1 cycles

 The electronic state is 1-A.
 Alpha  occ. eigenvalues --  -19.63319 -19.62938 -19.62763 -10.63139 -10.58646
 Alpha  occ. eigenvalues --  -10.57719 -10.57599 -10.57430 -10.52674 -10.52494
 Alpha  occ. eigenvalues --  -10.52397 -10.52363 -10.52204  -1.19561  -1.16221
 Alpha  occ. eigenvalues --   -1.13336  -0.90705  -0.89386  -0.86206  -0.84623
 Alpha  occ. eigenvalues --   -0.75022  -0.73165  -0.72079  -0.69754  -0.65673
 Alpha  occ. eigenvalues --   -0.64540  -0.59727  -0.57183  -0.56429  -0.54349
 Alpha  occ. eigenvalues --   -0.53835  -0.52565  -0.52425  -0.50894  -0.50092
 Alpha  occ. eigenvalues --   -0.49701  -0.46538  -0.45572  -0.44488  -0.43772
 Alpha  occ. eigenvalues --   -0.42867  -0.41384  -0.40798  -0.40009  -0.39205
 Alpha  occ. eigenvalues --   -0.38294  -0.37218  -0.36632  -0.34244  -0.33159
 Alpha  occ. eigenvalues --   -0.32181
 Alpha virt. eigenvalues --    0.00467   0.01304   0.01349   0.01482   0.02681
 Alpha virt. eigenvalues --    0.02871   0.03039   0.03989   0.04040   0.04822
 Alpha virt. eigenvalues --    0.05063   0.05461   0.05890   0.06103   0.07465

 Mulliken charges:
               1
     1  C   -0.054402
     2  C   -0.274122
     3  C   -0.306439
     4  C   -0.270535
     5  C   -0.132092
     6  O   -0.409628
     7  C   -0.394559
     8  O   -0.369517
     9  C   -0.398648
    10  C    0.145472
    11  C   -0.090140
    12  C   -0.532179
    13  O   -0.438658
    14  H    0.241818
    15  H    0.191163
    16  H    0.212491
    17  H    0.160298
    18  H    0.200665
    19  H    0.173144
    20  H    0.283062
    21  H    0.183603
    22  H    0.181900
    23  H    0.205387
    24  H    0.173078
    25  H    0.161948
    26  H    0.181463
    27  H    0.241036
    28  H    0.153165
    29  H    0.200463
    30  H    0.173792
    31  H    0.206969
 Sum of Mulliken charges =  -0.00000

 Dipole moment (field-independent basis, Debye):
    X=              1.9025    Y=              0.5953    Z=              1.4575  Tot=              2.4695
 Quadrupole moment (field-independent basis, Debye-Ang):
   XX=            -77.8011   YY=            -76.4559   ZZ=            -83.0428
   XY=              4.1374   XZ=             10.4492   YZ=             -0.9516

  Exact polarizability: 185.279   3.481 176.786   2.322   0.646 166.129
 Approx polarizability: 146.362   2.484 144.595   0.930   0.826 142.016

 ******    1 imaginary frequencies (negative Signs) ******

                      1                      2                      3
                      A                      A                      A
 Frequencies --    -69.6512                66.5115                81.4421
 Red. masses --      3.3490                 3.8328                 3.8933
 Frc consts  --      0.0096                 0.0100                 0.0152
 IR Inten    --      3.7228                 1.4444                 2.5331

                      4                      5                      6
                      A                      A                      A
 Frequencies --    154.6214               215.0132               244.8310
 Red. masses --      3.5871                 3.4171                 1.8922
 Frc consts  --      0.0505                 0.0931                 0.0668
 IR Inten    --      6.9221                 7.0468                 2.1799

                      7                      8                      9
                      A                      A                      A
 Frequencies --    253.0163               265.6156               300.5581
 Red. masses --      2.2667                 3.4223                 3.7970
 Frc consts  --      0.0855                 0.1423                 0.2021
 IR Inten    --      8.2284                 5.7116                 3.1872

                     10                     11                     12
                      A                      A                      A
 Frequencies --    358.5060               378.3522               428.3053
 Red. masses --      1.9614                 2.4374                 3.0422
 Frc consts  --      0.1485                 0.2056                 0.3288
 IR Inten    --      5.8005                 7.3114                 3.3155

                     13                     14                     15
                      A                      A                      A
 Frequencies --    462.3093               475.1827               480.0806
 Red. masses --      2.8712                 3.1400                 2.8187
 Frc consts  --      0.3616                 0.4177                 0.3828
 IR Inten    --      2.1060                 1.1627                 1.5026

                     16                     17                     18
                      A                      A                      A
 Frequencies --    528.6264               560.4567               603.6263
 Red. masses --      2.3543                 2.7240                 2.5028
 Frc consts  --      0.3876                 0.5041                 0.5373
 IR Inten    --      4.8206                 0.6269                 9.3591

                     19                     20                     21
                      A                      A                      A
 Frequencies --    664.0234               830.8523               833.3663
 Red. masses --      2.8845                 1.7791                 1.5282
 Frc consts  --      0.7493                 0.7236                 0.6253
 IR Inten    --     37.3349                 7.5165                 7.6618

                     22                     23                     24
                      A                      A                      A
 Frequencies --    839.7364               863.1683               879.9060
 Red. masses --      2.5202                 1.9765                 2.0666
 Frc consts  --      1.0471                 0.8676                 0.9427
 IR Inten    --     11.7775                16.7768                37.5618

                     25                     26                     27
                      A                      A                      A
 Frequencies --    895.6074               927.7413               937.3970
 Red. masses --      2.4087                 2.4155                 1.7879
 Frc consts  --      1.1383                 1.2249                 0.9257
 IR Inten    --     20.9033                61.2198                 9.4220

                     28                     29                     30
                      A                      A                      A
 Frequencies --    957.0972               984.5353              1000.5720
 Red. masses --      2.2443                 1.7540                 1.4785
 Frc consts  --      1.2113                 1.0017                 0.8721
 IR Inten    --      8.2038                29.8526                22.3179

                     31                     32                     33
                      A                      A                      A
 Frequencies --   1014.6182              1035.3320              1054.4083
 Red. masses --      2.0807                 2.1188                 1.5942
 Frc consts  --      1.2620                 1.3381                 1.0442
 IR Inten    --     12.4350                52.0059               124.8570

                     34                     35                     36
                      A                      A                      A
 Frequencies --   1078.6179              1097.6082              1113.2812
 Red. masses --      2.9258                 2.4665                 3.9499
 Frc consts  --      2.0055                 1.7508                 2.8844
 IR Inten    --     19.9345                59.6015               307.0164

                     37                     38                     39
                      A                      A                      A
 Frequencies --   1131.0203              1156.4312              1170.4821
 Red. masses --      3.1766                 2.3176                 2.5763
 Frc consts  --      2.3941                 1.8261                 2.0796
 IR Inten    --     39.7389                 4.7942                37.0498

                     40                     41                     42
                      A                      A                      A
 Frequencies --   1182.8807              1197.2167              1205.7624
 Red. masses --      2.2518                 1.3844                 1.8007
 Frc consts  --      1.8563                 1.1691                 1.5424
 IR Inten    --     78.2300                54.5367               169.4954

                     43                     44                     45
                      A                      A                      A
 Frequencies --   1213.2731              1238.1380              1271.2339
 Red. masses --      2.7214                 1.6489                 1.3427
 Frc consts  --      2.3603                 1.4893                 1.2785
 IR Inten    --    223.3038                30.2918                28.8911

                     46                     47                     48
                      A                      A                      A
 Frequencies --   1279.2090              1281.7353              1314.8810
 Red. masses --      1.2381                 1.2862                 1.1894
 Frc consts  --      1.1937                 1.2449                 1.2115
 IR Inten    --      2.3458                25.0883                30.6859

                     49                     50                     51
                      A                      A                      A
 Frequencies --   1326.5550              1339.4349              1353.6754
 Red. masses --      1.4036                 1.3008                 1.3210
 Frc consts  --      1.4553                 1.3751                 1.4262
 IR Inten    --     43.0809                 9.6875                 9.2968

                     52                     53                     54
                      A                      A                      A
 Frequencies --   1368.5016              1370.3519              1384.8214
 Red. masses --      1.4148                 1.2478                 1.4605
 Frc consts  --      1.5612                 1.3806                 1.6502
 IR Inten    --      0.8892                10.7639                12.0197

                     55                     56                     57
                      A                      A                      A
 Frequencies --   1389.7541              1391.8190              1403.9644
 Red. masses --      1.3124                 1.2807                 1.4601
 Frc consts  --      1.4935                 1.4617                 1.6957
 IR Inten    --     14.0465                14.2882                15.5814

                     58                     59                     60
                      A                      A                      A
 Frequencies --   1418.5071              1425.7251              1429.4746
 Red. masses --      1.3362                 1.3627                 1.3351
 Frc consts  --      1.5841                 1.6321                 1.6074
 IR Inten    --      3.7038                38.0542                 3.3967

                     61                     62                     63
                      A                      A                      A
 Frequencies --   1445.1517              1468.5700              1470.1832
 Red. masses --      1.4430                 1.1002                 1.1136
 Frc consts  --      1.7756                 1.3981                 1.4182
 IR Inten    --     49.0756                 6.4410                 2.7492

                     64                     65                     66
                      A                      A                      A
 Frequencies --   1472.9302              1481.8455              1489.6583
 Red. masses --      1.1049                 1.1202                 1.1219
 Frc consts  --      1.4124                 1.4493                 1.4668
 IR Inten    --      9.5833                 8.4284                25.5913

                     67                     68                     69
                      A                      A                      A
 Frequencies --   1500.0665              1505.4015              1508.2070
 Red. masses --      1.0833                 1.0958                 1.1012
 Frc consts  --      1.4362                 1.4632                 1.4758
 IR Inten    --      3.0967                 5.7110                 8.7209

                     70                     71                     72
                      A                      A                      A
 Frequencies --   3031.5695              3037.4227              3038.9213
 Red. masses --      1.0706                 1.0700                 1.0699
 Frc consts  --      5.7971                 5.8163                 5.8215
 IR Inten    --     67.1793                51.8120                83.1367

                     73                     74                     75
                      A                      A                      A
 Frequencies --   3053.8864              3057.9836              3059.5995
 Red. masses --      1.0814                 1.0809                 1.0692
 Frc consts  --      5.9420                 5.9556                 5.8971
 IR Inten    --     57.4382                14.5091                23.4705

                     76                     77                     78
                      A                      A                      A
 Frequencies --   3068.8874              3069.2880              3072.3492
 Red. masses --      1.0619                 1.0638                 1.0623
 Frc consts  --      5.8926                 5.9046                 5.9081
 IR Inten    --     30.7713                59.4019                47.5243

                     79                     80                     81
                      A                      A                      A
 Frequencies --   3090.4879              3118.0828              3121.2743
 Red. masses --      1.0617                 1.0974                 1.1009
 Frc consts  --      5.9748                 6.2863                 6.3189
 IR Inten    --     46.6059                41.2591                57.6606

                     82                     83                     84
                      A                      A                      A
 Frequencies --   3124.5105              3128.1345              3139.8707
 Red. masses --      1.1025                 1.1039                 1.0954
 Frc consts  --      6.3416                 6.3642                 6.3627
 IR Inten    --     49.0818                53.8895                42.0521

                     85                     86                     87
                      A                      A                      A
 Frequencies --   3142.0296              3144.3181              3146.8736
 Red. masses --      1.0954                 1.0956                 1.1039
 Frc consts  --      6.3717                 6.3819                 6.4406
 IR Inten    --     50.2578                23.3952                32.6092

 - Thermochemistry -
 -------------------
 Temperature   298.150 Kelvin.  Pressure   1.00000 Atm.
 Atom     1 has atomic number  6 and mass  12.00000

 Molecular mass:   186.12559 amu.
 Principal axes and moments of inertia in atomic units:
                           1         2         3
     Eigenvalues --   890.745804657.902055151.78579
           X            0.99995   0.00253   0.00980
           Y           -0.00245   0.99996  -0.00869
           Z           -0.00982   0.00866   0.99991
 This molecule is an asymmetric top.
 Rotational symmetry number  1.
 Warning -- assumption of classical behavior for rotation
           may cause significant error
 Rotational temperatures (Kelvin)      0.09724     0.01860     0.01681
 Rotational constants (GHZ):           2.02610     0.38746     0.35031
    1 imaginary frequencies ignored.
 Zero-point vibrational energy     736285.2 (Joules/Mol)
                                  175.97639 (Kcal/Mol)
 Warning -- explicit consideration of  17 degrees of freedom as
           vibrations may cause significant error
 Vibrational temperatures:     95.70   117.18   222.47   309.36   352.26
          (Kelvin)            364.03   382.16   432.44   515.81   544.36
                              616.24   665.16   683.68   690.73   760.58
                              806.37   868.48   955.38  1195.41  1199.03
                             1208.19  1241.91  1265.99  1288.58  1334.81
                             1348.71  1377.05  1416.53  1439.60  1459.81
                             1489.61  1517.06  1551.89  1579.21  1601.76
                             1627.29  1663.85  1684.06  1701.90  1722.53
                             1734.82  1745.63  1781.40  1829.02  1840.50
                             1844.13  1891.82  1908.62  1927.15  1947.64
                             1968.97  1971.63  1992.45  1999.55  2002.52
                             2019.99  2040.92  2051.30  2056.70  2079.25
                             2112.94  2115.27  2119.22  2132.05  2143.29
                             2158.26  2165.94  2169.97  4361.75  4370.17
                             4372.33  4393.86  4399.76  4402.08  4415.44
                             4416.02  4420.43  4446.52  4486.23  4490.82
                             4495.47  4500.69  4517.57  4520.68  4523.97
                             4527.65

 Zero-point correction=                           0.280436 (Hartree/Particle)
 Thermal correction to Energy=                    0.291352
 Thermal correction to Enthalpy=                  0.292296
 Thermal correction to Gibbs Free Energy=         0.243745
 Sum of electronic and zero-point Energies=           -617.223470
 Sum of electronic and thermal Energies=              -617.212554
 Sum of electronic and thermal Enthalpies=            -617.211610
 Sum of electronic and thermal Free Energies=         -617.260160

                     E (Thermal)             CV                S
                      KCal/Mol        Cal/Mol-Kelvin    Cal/Mol-Kelvin
 Total                  182.826             44.953            102.183
 Electronic               0.000              0.000              0.000
 Translational            0.889              2.981             41.570
 Rotational               0.889              2.981             31.436
 Vibrational            181.048             38.992             29.177
 Vibration     1          0.598              1.970              4.254
 Vibration     2          0.600              1.962              3.856
 Vibration     3          0.620              1.898              2.615
 Vibration     4          0.645              1.818              2.001
 Vibration     5          0.660              1.771              1.767
 Vibration     6          0.664              1.758              1.709
 Vibration     7          0.671              1.736              1.625
 Vibration     8          0.693              1.673              1.414
 Vibration     9          0.733              1.558              1.129
 Vibration    10          0.749              1.516              1.046
 Vibration    11          0.790              1.409              0.864
 Vibration    12          0.820              1.334              0.759
 Vibration    13          0.832              1.305              0.723
 Vibration    14          0.836              1.294              0.710
 Vibration    15          0.884              1.187              0.590
 Vibration    16          0.916              1.117              0.523
 Vibration    17          0.962              1.024              0.443

 Optimization completed.
    -- Stationary point found.
 Normal termination of Gaussian 16 at Sat Mar  9 14:33:28 2019.
