 Gaussian 16, Revision B.01,
 Gaussian 16:  ES64L-G16RevB.01 20-Dec-2017

 ----------------------------------------------------------------------
 #M062X/6-311++G(2d,2p) opt=ModRedundant freq=noraman SCRF=(SMD,solvent
 =water)
 ----------------------------------------------------------------------

 -------------------------------
 4c1_b1_e3_4c1_PSI.inp_extract_2
 -------------------------------
 Symbolic Z-matrix:
 Charge =  0 Multiplicity = 1

 SCF Done:  E(RM062X) =  -617.508177424     A.U. after   12 cycles
 SCF Done:  E(RM062X) =  -617.509658756     A.U. after   10 cycles
 SCF Done:  E(RM062X) =  -617.509778045     A.U. after    9 cycles
 SCF Done:  E(RM062X) =  -617.509800989     A.U. after    8 cycles
 SCF Done:  E(RM062X) =  -617.509803580     A.U. after    8 cycles
 SCF Done:  E(RM062X) =  -617.509804864     A.U. after    7 cycles
 SCF Done:  E(RM062X) =  -617.509805580     A.U. after    7 cycles
 SCF Done:  E(RM062X) =  -617.509805841     A.U. after    7 cycles
 Optimization completed.
    -- Stationary point found.
 Normal termination of Gaussian 16 at Sat Mar  9 12:00:30 2019.

 ----------------------------------------------------------------------
 #N Geom=AllCheck Guess=TCheck SCRF=Check GenChk RM062X/6-311++G(2d,2p)
  Freq
 ----------------------------------------------------------------------

 Structure from the checkpoint file:  "4c1_b1_e3_4c1_PSI.inp_extract_2.chk"
 -------------------------------
 4c1_b1_e3_4c1_PSI.inp_extract_2
 -------------------------------
 Charge =  0 Multiplicity = 1

                         Standard orientation:
 ---------------------------------------------------------------------
 Center     Atomic      Atomic             Coordinates (Angstroms)
 Number     Number       Type             X           Y           Z
 ---------------------------------------------------------------------
      1          6           0       -1.639217    0.591735    1.012025
      2          6           0       -3.546528   -0.407423   -0.872193
      3          6           0        2.267701   -1.089882    0.789639
      4          6           0       -1.156881   -0.157785   -0.223680
      5          6           0       -2.224803   -1.133827   -0.681851
      6          8           0        1.586533    0.369803   -1.013641
      7          6           0        3.580981   -0.319815    0.926821
      8          8           0       -3.952623    0.247619    0.324801
      9          6           0        3.935333    0.352269   -0.397718
     10          6           0        1.192742   -0.178283    0.238258
     11          6           0        2.759057    1.177779   -0.887397
     12          6           0       -2.995409    1.221227    0.726136
     13          8           0        0.030130   -0.922682    0.022645
     14          1           0       -1.730027   -0.112482    1.842461
     15          1           0       -0.946263    1.380517    1.302761
     16          1           0       -4.340310   -1.104360   -1.130665
     17          1           0       -3.459837    0.334301   -1.674056
     18          1           0        2.385888   -1.926374    0.096715
     19          1           0        1.937281   -1.483666    1.750579
     20          1           0       -0.957319    0.558291   -1.026440
     21          1           0       -1.927880   -1.607944   -1.617706
     22          1           0       -2.343673   -1.911851    0.075848
     23          1           0        4.377645   -0.989022    1.248904
     24          1           0        3.468884    0.445881    1.699067
     25          1           0        4.172879   -0.404923   -1.148406
     26          1           0        4.806474    0.998825   -0.288326
     27          1           0        1.005732    0.653312    0.927989
     28          1           0        2.554577    1.998195   -0.190318
     29          1           0        2.942071    1.599941   -1.872917
     30          1           0       -2.901475    1.976213   -0.062689
     31          1           0       -3.394818    1.701246    1.616526
 ---------------------------------------------------------------------

 SCF Done:  E(RM062X) =  -617.509805841     A.U. after    1 cycles

 The electronic state is 1-A.
 Alpha  occ. eigenvalues --  -19.63624 -19.62930 -19.62923 -10.63141 -10.58464
 Alpha  occ. eigenvalues --  -10.57670 -10.57633 -10.57495 -10.52540 -10.52535
 Alpha  occ. eigenvalues --  -10.52488 -10.52432 -10.52233  -1.19929  -1.16208
 Alpha  occ. eigenvalues --   -1.13588  -0.90750  -0.89433  -0.86174  -0.84538
 Alpha  occ. eigenvalues --   -0.74956  -0.72901  -0.72375  -0.69713  -0.65335
 Alpha  occ. eigenvalues --   -0.64843  -0.59962  -0.57402  -0.57001  -0.54361
 Alpha  occ. eigenvalues --   -0.54227  -0.52693  -0.51880  -0.50617  -0.50291
 Alpha  occ. eigenvalues --   -0.49447  -0.46398  -0.45569  -0.44831  -0.44004
 Alpha  occ. eigenvalues --   -0.42746  -0.41500  -0.40297  -0.40132  -0.39076
 Alpha  occ. eigenvalues --   -0.38740  -0.37253  -0.36960  -0.34495  -0.33118
 Alpha  occ. eigenvalues --   -0.32494
 Alpha virt. eigenvalues --    0.00491   0.01283   0.01408   0.01430   0.02731
 Alpha virt. eigenvalues --    0.02842   0.02920   0.03962   0.04083   0.04820
 Alpha virt. eigenvalues --    0.05118   0.05395   0.05830   0.05955   0.07384

 Mulliken charges:
               1
     1  C   -0.069337
     2  C   -0.300406
     3  C   -0.267369
     4  C   -0.331485
     5  C   -0.148460
     6  O   -0.407237
     7  C   -0.400306
     8  O   -0.365994
     9  C   -0.340461
    10  C    0.057111
    11  C   -0.150627
    12  C   -0.425411
    13  O   -0.351160
    14  H    0.215407
    15  H    0.163407
    16  H    0.228266
    17  H    0.159406
    18  H    0.198964
    19  H    0.173515
    20  H    0.270753
    21  H    0.177720
    22  H    0.197449
    23  H    0.203742
    24  H    0.173866
    25  H    0.160963
    26  H    0.181522
    27  H    0.252429
    28  H    0.156200
    29  H    0.202846
    30  H    0.173700
    31  H    0.210986
 Sum of Mulliken charges =  -0.00000

 Dipole moment (field-independent basis, Debye):
    X=              3.0754    Y=              2.6533    Z=              0.8903  Tot=              4.1582
 Quadrupole moment (field-independent basis, Debye-Ang):
   XX=            -81.4549   YY=            -77.7945   ZZ=            -78.8466
   XY=              2.1996   XZ=              6.7854   YZ=              1.2661

  Exact polarizability: 184.535   2.462 172.653   0.756   0.732 170.638
 Approx polarizability: 146.295   2.424 143.596  -0.315   0.779 142.776

 ******    1 imaginary frequencies (negative Signs) ******

                      1                      2                      3
                      A                      A                      A
 Frequencies --    -10.5855                55.7991                79.8606
 Red. masses --      3.0308                 4.4439                 3.8938
 Frc consts  --      0.0002                 0.0082                 0.0146
 IR Inten    --      1.6592                 2.2750                 0.9367

                      4                      5                      6
                      A                      A                      A
 Frequencies --    168.5967               183.6122               238.3791
 Red. masses --      3.7922                 3.2930                 1.8524
 Frc consts  --      0.0635                 0.0654                 0.0620
 IR Inten    --     13.3226                 0.3846                 0.7545

                      7                      8                      9
                      A                      A                      A
 Frequencies --    246.2455               271.5520               337.2201
 Red. masses --      2.3535                 3.4891                 2.2551
 Frc consts  --      0.0841                 0.1516                 0.1511
 IR Inten    --      7.4972                 2.3862                 7.2651

                     10                     11                     12
                      A                      A                      A
 Frequencies --    363.5737               391.8490               442.7311
 Red. masses --      2.4057                 2.8317                 3.9627
 Frc consts  --      0.1874                 0.2562                 0.4576
 IR Inten    --     14.9965                 3.5889                 4.4497

                     13                     14                     15
                      A                      A                      A
 Frequencies --    449.3884               484.1318               487.6769
 Red. masses --      2.4100                 2.7703                 3.4680
 Frc consts  --      0.2868                 0.3826                 0.4860
 IR Inten    --      3.1623                 0.3946                 1.1415

                     16                     17                     18
                      A                      A                      A
 Frequencies --    512.4737               551.0674               595.3565
 Red. masses --      2.8962                 2.3280                 2.0329
 Frc consts  --      0.4482                 0.4165                 0.4245
 IR Inten    --      4.1238                 1.5012                12.7340

                     19                     20                     21
                      A                      A                      A
 Frequencies --    667.6042               829.2836               832.3638
 Red. masses --      2.9285                 1.5464                 1.7671
 Frc consts  --      0.7690                 0.6266                 0.7213
 IR Inten    --     30.9490                 1.3381                15.6774

                     22                     23                     24
                      A                      A                      A
 Frequencies --    842.4896               863.8416               883.4692
 Red. masses --      2.6369                 1.9754                 1.8723
 Frc consts  --      1.1027                 0.8685                 0.8610
 IR Inten    --     14.8523                10.7174                13.9948

                     25                     26                     27
                      A                      A                      A
 Frequencies --    900.6073               931.8127               938.4215
 Red. masses --      2.5147                 2.3453                 1.7961
 Frc consts  --      1.2017                 1.1998                 0.9319
 IR Inten    --     26.6487                59.3535                 2.8529

                     28                     29                     30
                      A                      A                      A
 Frequencies --    958.6917               992.6557              1005.6771
 Red. masses --      2.1488                 1.7922                 1.4981
 Frc consts  --      1.1636                 1.0405                 0.8927
 IR Inten    --     16.6056                33.6170                21.6178

                     31                     32                     33
                      A                      A                      A
 Frequencies --   1014.2578              1039.0361              1055.8020
 Red. masses --      1.9802                 2.2309                 1.5533
 Frc consts  --      1.2002                 1.4190                 1.0202
 IR Inten    --     18.9223                40.7490               111.8504

                     34                     35                     36
                      A                      A                      A
 Frequencies --   1092.9540              1094.5887              1118.0665
 Red. masses --      2.5898                 2.9980                 4.2479
 Frc consts  --      1.8227                 2.1163                 3.1287
 IR Inten    --     55.7928                29.5819               297.6688

                     37                     38                     39
                      A                      A                      A
 Frequencies --   1132.6395              1157.7602              1169.7919
 Red. masses --      3.1900                 2.3374                 2.6154
 Frc consts  --      2.4112                 1.8459                 2.1087
 IR Inten    --     63.3131                29.0118                62.7213

                     40                     41                     42
                      A                      A                      A
 Frequencies --   1185.1769              1197.0566              1205.8831
 Red. masses --      2.0705                 1.4211                 1.5846
 Frc consts  --      1.7135                 1.1998                 1.3576
 IR Inten    --     70.0082                24.0749                74.1338

                     43                     44                     45
                      A                      A                      A
 Frequencies --   1223.1733              1239.8479              1272.9467
 Red. masses --      3.6557                 1.6396                 1.3108
 Frc consts  --      3.2225                 1.4850                 1.2514
 IR Inten    --    284.2315                46.1026                16.0091

                     46                     47                     48
                      A                      A                      A
 Frequencies --   1278.7486              1286.1298              1313.8710
 Red. masses --      1.2298                 1.2765                 1.1968
 Frc consts  --      1.1849                 1.2440                 1.2172
 IR Inten    --     10.7648                 5.4260                21.2684

                     49                     50                     51
                      A                      A                      A
 Frequencies --   1322.9410              1342.8817              1350.3396
 Red. masses --      1.3616                 1.3223                 1.2778
 Frc consts  --      1.4040                 1.4050                 1.3727
 IR Inten    --     15.0515                 5.7271                 1.9560

                     52                     53                     54
                      A                      A                      A
 Frequencies --   1361.5696              1367.9827              1383.4648
 Red. masses --      1.1855                 1.4500                 1.5002
 Frc consts  --      1.2948                 1.5987                 1.6917
 IR Inten    --     10.8224                 2.0736                 4.7959

                     55                     56                     57
                      A                      A                      A
 Frequencies --   1391.2740              1397.1090              1405.8627
 Red. masses --      1.2990                 1.2673                 1.4423
 Frc consts  --      1.4815                 1.4575                 1.6795
 IR Inten    --     16.6010                17.2340                62.2159

                     58                     59                     60
                      A                      A                      A
 Frequencies --   1409.5220              1420.1788              1431.4229
 Red. masses --      1.5879                 1.3317                 1.3397
 Frc consts  --      1.8588                 1.5825                 1.6173
 IR Inten    --     40.0295                12.5794                 5.5868

                     61                     62                     63
                      A                      A                      A
 Frequencies --   1446.2872              1466.5018              1469.4646
 Red. masses --      1.4872                 1.1009                 1.1088
 Frc consts  --      1.8328                 1.3949                 1.4106
 IR Inten    --     30.5311                 5.3323                 4.8315

                     64                     65                     66
                      A                      A                      A
 Frequencies --   1474.5762              1480.2280              1490.4285
 Red. masses --      1.1171                 1.1277                 1.1251
 Frc consts  --      1.4311                 1.4557                 1.4725
 IR Inten    --      8.4736                 7.9751                25.8745

                     67                     68                     69
                      A                      A                      A
 Frequencies --   1499.1292              1503.7496              1507.5151
 Red. masses --      1.0831                 1.0971                 1.1020
 Frc consts  --      1.4341                 1.4617                 1.4755
 IR Inten    --      3.3072                 4.8477                 7.7031

                     70                     71                     72
                      A                      A                      A
 Frequencies --   3037.0147              3037.2948              3038.9743
 Red. masses --      1.0702                 1.0703                 1.0704
 Frc consts  --      5.8158                 5.8173                 5.8243
 IR Inten    --     18.2206                75.0222                92.5331

                     73                     74                     75
                      A                      A                      A
 Frequencies --   3040.1609              3058.2499              3060.2024
 Red. masses --      1.0812                 1.0818                 1.0689
 Frc consts  --      5.8876                 5.9611                 5.8976
 IR Inten    --     70.6046                14.9245                21.1534

                     76                     77                     78
                      A                      A                      A
 Frequencies --   3068.4856              3070.7570              3072.0060
 Red. masses --      1.0620                 1.0617                 1.0618
 Frc consts  --      5.8912                 5.8988                 5.9036
 IR Inten    --     42.6847                 2.9995                63.4512

                     79                     80                     81
                      A                      A                      A
 Frequencies --   3075.4436              3118.7825              3121.8104
 Red. masses --      1.0644                 1.0971                 1.1009
 Frc consts  --      5.9316                 6.2872                 6.3214
 IR Inten    --     69.7072                41.0072                58.3638

                     82                     83                     84
                      A                      A                      A
 Frequencies --   3126.0382              3128.3363              3133.9420
 Red. masses --      1.1027                 1.1037                 1.1006
 Frc consts  --      6.3491                 6.3638                 6.3690
 IR Inten    --     43.8136                55.0431                43.4711

                     85                     86                     87
                      A                      A                      A
 Frequencies --   3139.8903              3141.5475              3143.9130
 Red. masses --      1.0964                 1.0956                 1.0961
 Frc consts  --      6.3685                 6.3706                 6.3833
 IR Inten    --     40.8527                38.4019                34.3853

 - Thermochemistry -
 -------------------
 Temperature   298.150 Kelvin.  Pressure   1.00000 Atm.
 Atom     1 has atomic number  6 and mass  12.00000

 Molecular mass:   186.12559 amu.
 Principal axes and moments of inertia in atomic units:
                           1         2         3
     Eigenvalues --   833.757465143.586405186.39333
           X            0.99997   0.00062   0.00713
           Y           -0.00119   0.99681   0.07978
           Z           -0.00706  -0.07979   0.99679
 This molecule is an asymmetric top.
 Rotational symmetry number  1.
 Warning -- assumption of classical behavior for rotation
           may cause significant error
 Rotational temperatures (Kelvin)      0.10388     0.01684     0.01670
 Rotational constants (GHZ):           2.16459     0.35087     0.34798
    1 imaginary frequencies ignored.
 Zero-point vibrational energy     736417.8 (Joules/Mol)
                                  176.00808 (Kcal/Mol)
 Warning -- explicit consideration of  17 degrees of freedom as
           vibrations may cause significant error
 Vibrational temperatures:     80.28   114.90   242.57   264.18   342.97
          (Kelvin)            354.29   390.70   485.18   523.10   563.78
                              636.99   646.57   696.56   701.66   737.34
                              792.86   856.59   960.53  1193.15  1197.59
                             1212.15  1242.88  1271.12  1295.77  1340.67
                             1350.18  1379.34  1428.21  1446.95  1459.29
                             1494.94  1519.06  1572.52  1574.87  1608.65
                             1629.62  1665.76  1683.07  1705.21  1722.30
                             1735.00  1759.87  1783.86  1831.49  1839.83
                             1850.45  1890.37  1903.42  1932.11  1942.84
                             1958.99  1968.22  1990.50  2001.73  2010.13
                             2022.72  2027.99  2043.32  2059.50  2080.88
                             2109.97  2114.23  2121.59  2129.72  2144.39
                             2156.91  2163.56  2168.98  4369.59  4369.99
                             4372.41  4374.11  4400.14  4402.95  4414.87
                             4418.13  4419.93  4424.88  4487.23  4491.59
                             4497.67  4500.98  4509.04  4517.60  4519.99
                             4523.39

 Zero-point correction=                           0.280487 (Hartree/Particle)
 Thermal correction to Energy=                    0.291398
 Thermal correction to Enthalpy=                  0.292342
 Thermal correction to Gibbs Free Energy=         0.243631
 Sum of electronic and zero-point Energies=           -617.229319
 Sum of electronic and thermal Energies=              -617.218408
 Sum of electronic and thermal Enthalpies=            -617.217464
 Sum of electronic and thermal Free Energies=         -617.266175

                     E (Thermal)             CV                S
                      KCal/Mol        Cal/Mol-Kelvin    Cal/Mol-Kelvin
 Total                  182.855             44.855            102.521
 Electronic               0.000              0.000              0.000
 Translational            0.889              2.981             41.570
 Rotational               0.889              2.981             31.476
 Vibrational            181.078             38.893             29.475
 Vibration     1          0.596              1.975              4.600
 Vibration     2          0.600              1.963              3.894
 Vibration     3          0.625              1.881              2.451
 Vibration     4          0.631              1.862              2.291
 Vibration     5          0.656              1.782              1.815
 Vibration     6          0.661              1.769              1.757
 Vibration     7          0.675              1.726              1.586
 Vibration     8          0.718              1.601              1.225
 Vibration     9          0.737              1.547              1.107
 Vibration    10          0.759              1.488              0.993
 Vibration    11          0.802              1.377              0.818
 Vibration    12          0.808              1.362              0.798
 Vibration    13          0.840              1.285              0.699
 Vibration    14          0.844              1.277              0.690
 Vibration    15          0.868              1.222              0.628
 Vibration    16          0.906              1.137              0.542
 Vibration    17          0.953              1.042              0.458

 Optimization completed.
    -- Stationary point found.
 Normal termination of Gaussian 16 at Sat Mar  9 13:01:45 2019.
