 Gaussian 16, Revision B.01,
 Gaussian 16:  ES64L-G16RevB.01 20-Dec-2017

 ----------------------------------------------------------------------
 #M062X/6-311++G(2d,2p) opt=ModRedundant freq=noraman SCRF=(SMD,solvent
 =water)
 ----------------------------------------------------------------------

 --------------------------------
 4c1_b1_e3_4c1_PSI.inp_extract_11
 --------------------------------
 Symbolic Z-matrix:
 Charge =  0 Multiplicity = 1

 SCF Done:  E(RM062X) =  -617.505073338     A.U. after   12 cycles
 SCF Done:  E(RM062X) =  -617.506504314     A.U. after   10 cycles
 SCF Done:  E(RM062X) =  -617.506758084     A.U. after   10 cycles
 SCF Done:  E(RM062X) =  -617.506891345     A.U. after    9 cycles
 SCF Done:  E(RM062X) =  -617.506894859     A.U. after    8 cycles
 SCF Done:  E(RM062X) =  -617.506895080     A.U. after    7 cycles
 SCF Done:  E(RM062X) =  -617.506895056     A.U. after    7 cycles
 SCF Done:  E(RM062X) =  -617.506894956     A.U. after    7 cycles
 SCF Done:  E(RM062X) =  -617.506894842     A.U. after    7 cycles
 SCF Done:  E(RM062X) =  -617.506894779     A.U. after    7 cycles
 Optimization completed.
    -- Stationary point found.
 Normal termination of Gaussian 16 at Sat Mar  9 14:45:15 2019.

 ----------------------------------------------------------------------
 #N Geom=AllCheck Guess=TCheck SCRF=Check GenChk RM062X/6-311++G(2d,2p)
  Freq
 ----------------------------------------------------------------------

 Structure from the checkpoint file:  "4c1_b1_e3_4c1_PSI.inp_extract_11.chk"
 --------------------------------
 4c1_b1_e3_4c1_PSI.inp_extract_11
 --------------------------------
 Charge =  0 Multiplicity = 1

                         Standard orientation:
 ---------------------------------------------------------------------
 Center     Atomic      Atomic             Coordinates (Angstroms)
 Number     Number       Type             X           Y           Z
 ---------------------------------------------------------------------
      1          6           0        1.633201    1.134585    0.411173
      2          6           0        3.228075   -1.035896   -0.557912
      3          6           0       -2.155491   -1.280503    0.390643
      4          6           0        1.298170   -0.297166    0.800262
      5          6           0        1.748447   -1.269294   -0.280588
      6          8           0       -1.554493    1.061388    0.430967
      7          6           0       -3.299295   -0.980523   -0.577614
      8          8           0        3.472021    0.309522   -0.954817
      9          6           0       -3.752938    0.468334   -0.417444
     10          6           0       -1.052234   -0.255971    0.228618
     11          6           0       -2.557180    1.396953   -0.530592
     12          6           0        3.115435    1.225709    0.075593
     13          8           0       -0.068071   -0.462758    1.202067
     14          1           0        1.048182    1.430466   -0.463302
     15          1           0        1.397323    1.815015    1.229724
     16          1           0        3.576107   -1.668260   -1.371305
     17          1           0        3.821345   -1.258884    0.335857
     18          1           0       -2.506142   -1.233526    1.424569
     19          1           0       -1.737279   -2.272127    0.216183
     20          1           0        1.853711   -0.536263    1.710094
     21          1           0        1.593698   -2.297969    0.047443
     22          1           0        1.195069   -1.114666   -1.207506
     23          1           0       -4.126548   -1.668917   -0.409616
     24          1           0       -2.951351   -1.136084   -1.602402
     25          1           0       -4.217891    0.608046    0.561127
     26          1           0       -4.487700    0.735600   -1.177477
     27          1           0       -0.631041   -0.302898   -0.780672
     28          1           0       -2.123212    1.335670   -1.535334
     29          1           0       -2.828467    2.431994   -0.335217
     30          1           0        3.716894    1.012516    0.966420
     31          1           0        3.374509    2.217691   -0.287145
 ---------------------------------------------------------------------

 SCF Done:  E(RM062X) =  -617.506894779     A.U. after    1 cycles

 The electronic state is 1-A.
 Alpha  occ. eigenvalues --  -19.63465 -19.62975 -19.62805 -10.63120 -10.58626
 Alpha  occ. eigenvalues --  -10.57711 -10.57650 -10.57425 -10.52561 -10.52495
 Alpha  occ. eigenvalues --  -10.52468 -10.52375 -10.52208  -1.19654  -1.16210
 Alpha  occ. eigenvalues --   -1.13492  -0.90470  -0.89428  -0.86176  -0.84762
 Alpha  occ. eigenvalues --   -0.74814  -0.73146  -0.72247  -0.70191  -0.65721
 Alpha  occ. eigenvalues --   -0.64558  -0.59548  -0.57335  -0.55924  -0.54418
 Alpha  occ. eigenvalues --   -0.53996  -0.52724  -0.52043  -0.50853  -0.50470
 Alpha  occ. eigenvalues --   -0.49347  -0.46669  -0.45486  -0.45111  -0.44239
 Alpha  occ. eigenvalues --   -0.42006  -0.41386  -0.41142  -0.40246  -0.39346
 Alpha  occ. eigenvalues --   -0.38633  -0.37175  -0.36289  -0.34337  -0.33302
 Alpha  occ. eigenvalues --   -0.32138
 Alpha virt. eigenvalues --    0.00452   0.01266   0.01384   0.01490   0.02723
 Alpha virt. eigenvalues --    0.02885   0.03015   0.04011   0.04082   0.04972
 Alpha virt. eigenvalues --    0.04991   0.05449   0.05883   0.06133   0.07371

 Mulliken charges:
               1
     1  C   -0.159892
     2  C   -0.383735
     3  C   -0.285083
     4  C   -0.388273
     5  C   -0.119273
     6  O   -0.408923
     7  C   -0.384931
     8  O   -0.363016
     9  C   -0.358244
    10  C    0.136915
    11  C   -0.122012
    12  C   -0.318153
    13  O   -0.378317
    14  H    0.205896
    15  H    0.199936
    16  H    0.202124
    17  H    0.173645
    18  H    0.202516
    19  H    0.158147
    20  H    0.286528
    21  H    0.184595
    22  H    0.192184
    23  H    0.197676
    24  H    0.177717
    25  H    0.163948
    26  H    0.180908
    27  H    0.280080
    28  H    0.146823
    29  H    0.207595
    30  H    0.167263
    31  H    0.205357
 Sum of Mulliken charges =  -0.00000

 Dipole moment (field-independent basis, Debye):
    X=             -1.1405    Y=             -1.5636    Z=             -1.6963  Tot=              2.5735
 Quadrupole moment (field-independent basis, Debye-Ang):
   XX=            -75.8261   YY=            -76.1019   ZZ=            -84.5461
   XY=             -2.2149   XZ=             11.5183   YZ=              0.7453

  Exact polarizability: 183.777  -2.615 175.703   2.432   0.006 167.947
 Approx polarizability: 145.787  -2.084 143.901   1.369  -0.094 143.170

                      1                      2                      3
                      A                      A                      A
 Frequencies --     24.4854                58.2428                78.5748
 Red. masses --      3.4793                 3.8489                 3.4009
 Frc consts  --      0.0012                 0.0077                 0.0124
 IR Inten    --      1.5139                 2.3509                 3.1466

                      4                      5                      6
                      A                      A                      A
 Frequencies --    147.1040               224.1028               243.4292
 Red. masses --      3.5122                 3.3597                 1.8649
 Frc consts  --      0.0448                 0.0994                 0.0651
 IR Inten    --      6.2132                 2.8525                 1.7903

                      7                      8                      9
                      A                      A                      A
 Frequencies --    246.7347               277.5705               327.0307
 Red. masses --      2.1914                 3.3844                 2.5893
 Frc consts  --      0.0786                 0.1536                 0.1632
 IR Inten    --      6.9335                 2.6363                 6.7329

                     10                     11                     12
                      A                      A                      A
 Frequencies --    368.6111               405.4922               424.2706
 Red. masses --      2.2425                 3.3545                 2.7234
 Frc consts  --      0.1795                 0.3250                 0.2888
 IR Inten    --     15.0315                 7.4355                 1.9769

                     13                     14                     15
                      A                      A                      A
 Frequencies --    453.7237               468.2655               495.0557
 Red. masses --      3.1037                 3.8612                 2.9043
 Frc consts  --      0.3765                 0.4988                 0.4194
 IR Inten    --      3.6599                 2.0733                 3.4697

                     16                     17                     18
                      A                      A                      A
 Frequencies --    521.3558               557.3566               589.1020
 Red. masses --      2.6302                 2.5732                 1.9357
 Frc consts  --      0.4212                 0.4710                 0.3958
 IR Inten    --      2.4001                 6.4373                 6.7192

                     19                     20                     21
                      A                      A                      A
 Frequencies --    672.6269               830.2030               830.9321
 Red. masses --      3.2041                 1.5461                 1.7975
 Frc consts  --      0.8541                 0.6278                 0.7312
 IR Inten    --     28.9757                 5.6850                 6.2411

                     22                     23                     24
                      A                      A                      A
 Frequencies --    841.1396               863.7124               878.0246
 Red. masses --      2.2737                 2.0402                 2.1687
 Frc consts  --      0.9478                 0.8967                 0.9851
 IR Inten    --      7.9559                20.2378                43.4983

                     25                     26                     27
                      A                      A                      A
 Frequencies --    895.4150               931.6557               935.7053
 Red. masses --      2.0989                 2.5212                 1.8512
 Frc consts  --      0.9915                 1.2893                 0.9550
 IR Inten    --      9.1706                57.6291                 1.4169

                     28                     29                     30
                      A                      A                      A
 Frequencies --    958.4640               991.7942               999.4195
 Red. masses --      2.1679                 1.7033                 1.3876
 Frc consts  --      1.1734                 0.9872                 0.8166
 IR Inten    --      4.9791                40.5541                16.2721

                     31                     32                     33
                      A                      A                      A
 Frequencies --   1014.8803              1030.8687              1054.8082
 Red. masses --      2.0804                 2.1436                 1.5762
 Frc consts  --      1.2625                 1.3421                 1.0333
 IR Inten    --     12.6131                39.8651               113.8844

                     34                     35                     36
                      A                      A                      A
 Frequencies --   1085.1125              1102.6160              1114.8758
 Red. masses --      2.7345                 2.6797                 4.3896
 Frc consts  --      1.8971                 1.9195                 3.2146
 IR Inten    --     26.6437                54.1514               303.6077

                     37                     38                     39
                      A                      A                      A
 Frequencies --   1130.3269              1156.4674              1174.3207
 Red. masses --      3.4836                 2.2865                 2.3178
 Frc consts  --      2.6223                 1.8017                 1.8832
 IR Inten    --     51.4672                 3.0358                39.3878

                     40                     41                     42
                      A                      A                      A
 Frequencies --   1187.5572              1196.3947              1206.4109
 Red. masses --      2.9725                 1.3777                 1.5222
 Frc consts  --      2.4699                 1.1619                 1.3053
 IR Inten    --    142.0271                37.1664                 9.9001

                     43                     44                     45
                      A                      A                      A
 Frequencies --   1214.1989              1237.9811              1267.9829
 Red. masses --      2.9340                 1.7024                 1.3228
 Frc consts  --      2.5485                 1.5372                 1.2530
 IR Inten    --    308.1145                30.0939                25.3725

                     46                     47                     48
                      A                      A                      A
 Frequencies --   1278.0549              1288.0981              1315.5517
 Red. masses --      1.2422                 1.3518                 1.1881
 Frc consts  --      1.1955                 1.3214                 1.2115
 IR Inten    --      0.6543                49.7239                29.0863

                     49                     50                     51
                      A                      A                      A
 Frequencies --   1330.2927              1338.2740              1347.9934
 Red. masses --      1.4119                 1.2735                 1.2980
 Frc consts  --      1.4721                 1.3438                 1.3897
 IR Inten    --     36.9084                 5.0728                 2.9456

                     52                     53                     54
                      A                      A                      A
 Frequencies --   1367.8221              1372.1876              1384.6412
 Red. masses --      1.4510                 1.2950                 1.4676
 Frc consts  --      1.5994                 1.4367                 1.6578
 IR Inten    --      1.5956                32.3513                 4.3746

                     55                     56                     57
                      A                      A                      A
 Frequencies --   1389.2696              1399.4863              1406.6569
 Red. masses --      1.3005                 1.3325                 1.4874
 Frc consts  --      1.4789                 1.5377                 1.7340
 IR Inten    --      3.7841                 5.4463                14.1283

                     58                     59                     60
                      A                      A                      A
 Frequencies --   1417.8678              1426.6544              1434.8129
 Red. masses --      1.3731                 1.3515                 1.2549
 Frc consts  --      1.6264                 1.6207                 1.5222
 IR Inten    --     26.6870                19.1000                11.5253

                     61                     62                     63
                      A                      A                      A
 Frequencies --   1459.3680              1466.5078              1470.0624
 Red. masses --      1.2571                 1.1082                 1.1079
 Frc consts  --      1.5775                 1.4042                 1.4107
 IR Inten    --     46.2101                 8.5586                 4.5959

                     64                     65                     66
                      A                      A                      A
 Frequencies --   1475.3451              1481.3939              1489.6198
 Red. masses --      1.1661                 1.1398                 1.1357
 Frc consts  --      1.4955                 1.4738                 1.4848
 IR Inten    --     16.5417                 5.0161                31.6801

                     67                     68                     69
                      A                      A                      A
 Frequencies --   1501.5727              1503.3208              1511.0076
 Red. masses --      1.0823                 1.1013                 1.1015
 Frc consts  --      1.4377                 1.4665                 1.4817
 IR Inten    --      2.4693                 5.6793                11.3476

                     70                     71                     72
                      A                      A                      A
 Frequencies --   3033.0577              3037.1031              3037.9899
 Red. masses --      1.0703                 1.0699                 1.0699
 Frc consts  --      5.8014                 5.8144                 5.8179
 IR Inten    --     71.2518                38.2599               104.5747

                     73                     74                     75
                      A                      A                      A
 Frequencies --   3057.7461              3060.1858              3066.8438
 Red. masses --      1.0806                 1.0684                 1.0684
 Frc consts  --      5.9527                 5.8950                 5.9204
 IR Inten    --     31.7776                24.3486                 0.8169

                     76                     77                     78
                      A                      A                      A
 Frequencies --   3068.8513              3070.3243              3076.4638
 Red. masses --      1.0618                 1.0618                 1.0775
 Frc consts  --      5.8915                 5.8976                 6.0084
 IR Inten    --     37.0514                58.7078                40.7475

                     79                     80                     81
                      A                      A                      A
 Frequencies --   3085.3296              3116.9739              3120.0059
 Red. masses --      1.0617                 1.0970                 1.1016
 Frc consts  --      5.9546                 6.2793                 6.3179
 IR Inten    --     39.5980                41.6758                53.0155

                     82                     83                     84
                      A                      A                      A
 Frequencies --   3124.3447              3126.8921              3133.1704
 Red. masses --      1.1046                 1.1023                 1.1034
 Frc consts  --      6.3531                 6.3499                 6.3818
 IR Inten    --     66.7464                39.8282                50.2451

                     85                     86                     87
                      A                      A                      A
 Frequencies --   3140.2246              3142.0862              3143.6308
 Red. masses --      1.0956                 1.0964                 1.0969
 Frc consts  --      6.3654                 6.3775                 6.3866
 IR Inten    --     40.5892                37.1235                40.8825

 - Thermochemistry -
 -------------------
 Temperature   298.150 Kelvin.  Pressure   1.00000 Atm.
 Atom     1 has atomic number  6 and mass  12.00000

 Molecular mass:   186.12559 amu.
 Principal axes and moments of inertia in atomic units:
                           1         2         3
     Eigenvalues --   984.718534445.954664818.37284
           X            0.99994   0.00031   0.01125
           Y           -0.00044   0.99993   0.01167
           Z           -0.01124  -0.01168   0.99987
 This molecule is an asymmetric top.
 Rotational symmetry number  1.
 Warning -- assumption of classical behavior for rotation
           may cause significant error
 Rotational temperatures (Kelvin)      0.08796     0.01948     0.01798
 Rotational constants (GHZ):           1.83275     0.40593     0.37455
 Zero-point vibrational energy     736968.4 (Joules/Mol)
                                  176.13967 (Kcal/Mol)
 Warning -- explicit consideration of  18 degrees of freedom as
           vibrations may cause significant error
 Vibrational temperatures:     35.23    83.80   113.05   211.65   322.43
          (Kelvin)            350.24   355.00   399.36   470.52   530.35
                              583.41   610.43   652.81   673.73   712.27
                              750.11   801.91   847.59   967.76  1194.48
                             1195.53  1210.21  1242.69  1263.28  1288.30
                             1340.44  1346.27  1379.02  1426.97  1437.94
                             1460.19  1483.19  1517.63  1561.23  1586.42
                             1604.06  1626.29  1663.90  1689.59  1708.63
                             1721.35  1735.76  1746.96  1781.18  1824.34
                             1838.84  1853.29  1892.79  1913.99  1925.48
                             1939.46  1967.99  1974.27  1992.19  1998.85
                             2013.55  2023.87  2040.00  2052.64  2064.38
                             2099.71  2109.98  2115.09  2122.69  2131.40
                             2143.23  2160.43  2162.94  2174.00  4363.89
                             4369.71  4370.99  4399.41  4402.92  4412.50
                             4415.39  4417.51  4426.35  4439.10  4484.63
                             4488.99  4495.24  4498.90  4507.93  4518.08
                             4520.76  4522.98

 Zero-point correction=                           0.280696 (Hartree/Particle)
 Thermal correction to Energy=                    0.292461
 Thermal correction to Enthalpy=                  0.293405
 Thermal correction to Gibbs Free Energy=         0.241856
 Sum of electronic and zero-point Energies=           -617.226198
 Sum of electronic and thermal Energies=              -617.214434
 Sum of electronic and thermal Enthalpies=            -617.213489
 Sum of electronic and thermal Free Energies=         -617.265039

                     E (Thermal)             CV                S
                      KCal/Mol        Cal/Mol-Kelvin    Cal/Mol-Kelvin
 Total                  183.522             46.816            108.495
 Electronic               0.000              0.000              0.000
 Translational            0.889              2.981             41.570
 Rotational               0.889              2.981             31.423
 Vibrational            181.745             40.854             35.502
 Vibration     1          0.593              1.985              6.232
 Vibration     2          0.596              1.974              4.516
 Vibration     3          0.600              1.964              3.926
 Vibration     4          0.617              1.906              2.709
 Vibration     5          0.649              1.804              1.926
 Vibration     6          0.659              1.774              1.778
 Vibration     7          0.661              1.768              1.754
 Vibration     8          0.679              1.715              1.549
 Vibration     9          0.711              1.621              1.275
 Vibration    10          0.741              1.537              1.086
 Vibration    11          0.770              1.458              0.943
 Vibration    12          0.786              1.417              0.878
 Vibration    13          0.812              1.353              0.785
 Vibration    14          0.825              1.320              0.742
 Vibration    15          0.851              1.261              0.671
 Vibration    16          0.876              1.203              0.607
 Vibration    17          0.913              1.124              0.529
 Vibration    18          0.946              1.055              0.469

 Optimization completed.
    -- Stationary point found.
 Normal termination of Gaussian 16 at Sat Mar  9 15:45:02 2019.
