 Gaussian 16, Revision B.01,
 Gaussian 16:  ES64L-G16RevB.01 20-Dec-2017

 ----------------------------------------------------------------------
 #M062X/6-311++G(2d,2p) opt=ModRedundant freq=noraman SCRF=(SMD,solvent
 =water)
 ----------------------------------------------------------------------

 --------------------------------
 4c1_b1_e3_4c1_PSI.inp_extract_17
 --------------------------------
 Symbolic Z-matrix:
 Charge =  0 Multiplicity = 1

 SCF Done:  E(RM062X) =  -617.504675981     A.U. after   12 cycles
 SCF Done:  E(RM062X) =  -617.506263173     A.U. after   10 cycles
 SCF Done:  E(RM062X) =  -617.506498637     A.U. after   10 cycles
 SCF Done:  E(RM062X) =  -617.506585381     A.U. after    9 cycles
 SCF Done:  E(RM062X) =  -617.506590685     A.U. after    8 cycles
 SCF Done:  E(RM062X) =  -617.506591029     A.U. after    7 cycles
 Optimization completed.
    -- Stationary point found.
 Normal termination of Gaussian 16 at Sat Mar  9 15:33:45 2019.

 ----------------------------------------------------------------------
 #N Geom=AllCheck Guess=TCheck SCRF=Check GenChk RM062X/6-311++G(2d,2p)
  Freq
 ----------------------------------------------------------------------

 Structure from the checkpoint file:  "4c1_b1_e3_4c1_PSI.inp_extract_17.chk"
 --------------------------------
 4c1_b1_e3_4c1_PSI.inp_extract_17
 --------------------------------
 Charge =  0 Multiplicity = 1

                         Standard orientation:
 ---------------------------------------------------------------------
 Center     Atomic      Atomic             Coordinates (Angstroms)
 Number     Number       Type             X           Y           Z
 ---------------------------------------------------------------------
      1          6           0       -2.266482   -1.151223   -0.652972
      2          6           0       -2.794857    1.276697    0.714990
      3          6           0        2.373231   -1.325089    0.289974
      4          6           0       -1.234970   -0.602783    0.318257
      5          6           0       -1.363618    0.917178    0.339274
      6          8           0        1.375630    0.631171   -0.709099
      7          6           0        3.649173   -0.536912    0.586248
      8          8           0       -3.728155    0.743140   -0.217937
      9          6           0        3.782434    0.631753   -0.387326
     10          6           0        1.182100   -0.388992    0.260029
     11          6           0        2.502943    1.448855   -0.387960
     12          6           0       -3.656599   -0.678117   -0.259125
     13          8           0        0.042924   -1.112883   -0.097697
     14          1           0       -2.026283   -0.796562   -1.657258
     15          1           0       -2.243631   -2.241834   -0.658241
     16          1           0       -2.934040    2.355248    0.710039
     17          1           0       -3.032312    0.899884    1.716317
     18          1           0        2.441778   -1.811770   -0.685922
     19          1           0        2.199384   -2.092241    1.044203
     20          1           0       -1.433613   -0.983858    1.325851
     21          1           0       -0.685206    1.376648    1.058027
     22          1           0       -1.142627    1.320189   -0.649470
     23          1           0        4.518102   -1.191291    0.530221
     24          1           0        3.601044   -0.149264    1.607379
     25          1           0        3.961950    0.257126   -1.397601
     26          1           0        4.620041    1.274929   -0.115964
     27          1           0        1.049537    0.083554    1.241620
     28          1           0        2.342572    1.906745    0.595107
     29          1           0        2.526774    2.238176   -1.135881
     30          1           0       -3.927685   -1.079029    0.723861
     31          1           0       -4.399104   -1.006272   -0.982760
 ---------------------------------------------------------------------

 SCF Done:  E(RM062X) =  -617.506591029     A.U. after    1 cycles

 The electronic state is 1-A.
 Alpha  occ. eigenvalues --  -19.63463 -19.62908 -19.62796 -10.63166 -10.58649
 Alpha  occ. eigenvalues --  -10.57639 -10.57622 -10.57459 -10.52515 -10.52511
 Alpha  occ. eigenvalues --  -10.52499 -10.52366 -10.52211  -1.19704  -1.16194
 Alpha  occ. eigenvalues --   -1.13518  -0.90773  -0.89377  -0.86154  -0.84583
 Alpha  occ. eigenvalues --   -0.74833  -0.73108  -0.72165  -0.69587  -0.65593
 Alpha  occ. eigenvalues --   -0.64880  -0.59688  -0.57484  -0.56181  -0.54344
 Alpha  occ. eigenvalues --   -0.54199  -0.52626  -0.52467  -0.51360  -0.49652
 Alpha  occ. eigenvalues --   -0.49146  -0.46475  -0.45756  -0.44417  -0.44196
 Alpha  occ. eigenvalues --   -0.42876  -0.41270  -0.40547  -0.39794  -0.39247
 Alpha  occ. eigenvalues --   -0.38129  -0.37237  -0.36583  -0.34995  -0.33180
 Alpha  occ. eigenvalues --   -0.32067
 Alpha virt. eigenvalues --    0.00518   0.01255   0.01387   0.01468   0.02702
 Alpha virt. eigenvalues --    0.02886   0.02979   0.03992   0.04035   0.04864
 Alpha virt. eigenvalues --    0.05158   0.05384   0.05829   0.06162   0.07496

 Mulliken charges:
               1
     1  C   -0.178466
     2  C   -0.479251
     3  C   -0.267136
     4  C   -0.281531
     5  C   -0.105089
     6  O   -0.407511
     7  C   -0.400913
     8  O   -0.367513
     9  C   -0.390525
    10  C    0.136231
    11  C   -0.125600
    12  C   -0.266080
    13  O   -0.403130
    14  H    0.193029
    15  H    0.182411
    16  H    0.208871
    17  H    0.177304
    18  H    0.196440
    19  H    0.175393
    20  H    0.286562
    21  H    0.169156
    22  H    0.243993
    23  H    0.201603
    24  H    0.171658
    25  H    0.162068
    26  H    0.182866
    27  H    0.249589
    28  H    0.159575
    29  H    0.198653
    30  H    0.159623
    31  H    0.217718
 Sum of Mulliken charges =  -0.00000

 Dipole moment (field-independent basis, Debye):
    X=              2.6763    Y=              0.2730    Z=              3.7961  Tot=              4.6527
 Quadrupole moment (field-independent basis, Debye-Ang):
   XX=            -77.7694   YY=            -78.4436   ZZ=            -79.3679
   XY=              8.2977   XZ=             -1.7212   YZ=              1.4729

  Exact polarizability: 184.728   4.218 175.764  -0.487   1.353 168.345
 Approx polarizability: 146.002   2.826 144.774   0.228   0.705 142.522

 ******    1 imaginary frequencies (negative Signs) ******

                      1                      2                      3
                      A                      A                      A
 Frequencies --    -17.6897                69.9155                79.5814
 Red. masses --      3.3579                 3.8294                 4.0229
 Frc consts  --      0.0006                 0.0110                 0.0150
 IR Inten    --      1.1914                 0.5449                 1.5159

                      4                      5                      6
                      A                      A                      A
 Frequencies --    159.2101               200.1130               246.9343
 Red. masses --      3.5438                 3.5368                 1.9665
 Frc consts  --      0.0529                 0.0834                 0.0707
 IR Inten    --     11.1669                 5.6402                 1.1342

                      7                      8                      9
                      A                      A                      A
 Frequencies --    251.7300               273.9048               311.3251
 Red. masses --      2.2917                 3.4108                 3.0491
 Frc consts  --      0.0856                 0.1508                 0.1741
 IR Inten    --     10.8481                 3.0614                 4.0086

                     10                     11                     12
                      A                      A                      A
 Frequencies --    358.7357               383.1571               435.2929
 Red. masses --      2.0704                 2.3024                 4.0091
 Frc consts  --      0.1570                 0.1991                 0.4476
 IR Inten    --      1.9449                10.7026                 3.3818

                     13                     14                     15
                      A                      A                      A
 Frequencies --    463.0690               473.6119               493.4006
 Red. masses --      2.6386                 2.9890                 2.7196
 Frc consts  --      0.3334                 0.3950                 0.3901
 IR Inten    --      1.6718                 1.4285                 2.2060

                     16                     17                     18
                      A                      A                      A
 Frequencies --    528.4027               549.6208               606.4319
 Red. masses --      2.5100                 2.6504                 2.4872
 Frc consts  --      0.4129                 0.4717                 0.5389
 IR Inten    --      4.3897                 0.2911                11.8232

                     19                     20                     21
                      A                      A                      A
 Frequencies --    650.6724               832.5911               834.5404
 Red. masses --      2.5085                 1.5316                 1.7190
 Frc consts  --      0.6257                 0.6256                 0.7054
 IR Inten    --     34.1451                 2.8197                 6.3748

                     22                     23                     24
                      A                      A                      A
 Frequencies --    841.3448               863.6446               880.9972
 Red. masses --      2.6648                 1.9779                 1.9905
 Frc consts  --      1.1114                 0.8692                 0.9102
 IR Inten    --     12.9805                12.6267                26.2049

                     25                     26                     27
                      A                      A                      A
 Frequencies --    901.2291               933.7277               937.8662
 Red. masses --      2.4306                 2.2174                 1.8307
 Frc consts  --      1.1631                 1.1390                 0.9487
 IR Inten    --     34.5389                23.8129                22.7977

                     28                     29                     30
                      A                      A                      A
 Frequencies --    959.0836               989.4835              1003.7608
 Red. masses --      2.1556                 1.7690                 1.5186
 Frc consts  --      1.1682                 1.0204                 0.9015
 IR Inten    --      7.7867                48.4677                32.7523

                     31                     32                     33
                      A                      A                      A
 Frequencies --   1014.8757              1038.1535              1057.9318
 Red. masses --      2.0952                 2.1691                 1.5256
 Frc consts  --      1.2715                 1.3774                 1.0060
 IR Inten    --      7.2713                29.8370                90.0545

                     34                     35                     36
                      A                      A                      A
 Frequencies --   1087.8436              1100.1120              1119.7234
 Red. masses --      2.9898                 2.6521                 3.8951
 Frc consts  --      2.0846                 1.8911                 2.8774
 IR Inten    --     61.5708                38.1890               308.2195

                     37                     38                     39
                      A                      A                      A
 Frequencies --   1127.1836              1157.0429              1168.1606
 Red. masses --      2.9997                 2.3327                 2.7824
 Frc consts  --      2.2455                 1.8399                 2.2370
 IR Inten    --     31.5194                15.3166                40.6025

                     40                     41                     42
                      A                      A                      A
 Frequencies --   1184.2062              1190.3507              1203.3395
 Red. masses --      2.2169                 1.4099                 1.6019
 Frc consts  --      1.8317                 1.1770                 1.3666
 IR Inten    --     87.8935                17.6545               101.9479

                     43                     44                     45
                      A                      A                      A
 Frequencies --   1221.0702              1239.4809              1271.9227
 Red. masses --      3.3739                 1.6688                 1.3084
 Frc consts  --      2.9639                 1.5106                 1.2472
 IR Inten    --    321.9120                43.2180                 2.4088

                     46                     47                     48
                      A                      A                      A
 Frequencies --   1278.7965              1279.9555              1315.1332
 Red. masses --      1.2383                 1.2502                 1.2075
 Frc consts  --      1.1931                 1.2067                 1.2305
 IR Inten    --     15.4738                 0.9831                36.2600

                     49                     50                     51
                      A                      A                      A
 Frequencies --   1321.4959              1340.2348              1350.6454
 Red. masses --      1.3361                 1.3477                 1.2613
 Frc consts  --      1.3748                 1.4262                 1.3556
 IR Inten    --     16.0918                15.2538                 1.9358

                     52                     53                     54
                      A                      A                      A
 Frequencies --   1359.8754              1367.4563              1385.6696
 Red. masses --      1.2410                 1.4196                 1.4618
 Frc consts  --      1.3521                 1.5640                 1.6537
 IR Inten    --     11.4810                 0.0763                20.7849

                     55                     56                     57
                      A                      A                      A
 Frequencies --   1387.6296              1389.0216              1404.7508
 Red. masses --      1.2764                 1.3377                 1.5271
 Frc consts  --      1.4480                 1.5206                 1.7755
 IR Inten    --     34.2702                11.0344                30.0467

                     58                     59                     60
                      A                      A                      A
 Frequencies --   1409.8927              1421.6465              1429.3756
 Red. masses --      1.4334                 1.3364                 1.3307
 Frc consts  --      1.6788                 1.5914                 1.6019
 IR Inten    --     28.7270                27.1018                 4.9604

                     61                     62                     63
                      A                      A                      A
 Frequencies --   1446.6921              1465.5811              1470.6288
 Red. masses --      1.4895                 1.1054                 1.1254
 Frc consts  --      1.8368                 1.3989                 1.4341
 IR Inten    --     38.6010                 4.0099                 2.8712

                     64                     65                     66
                      A                      A                      A
 Frequencies --   1472.7373              1481.0757              1490.3226
 Red. masses --      1.1031                 1.1245                 1.1205
 Frc consts  --      1.4096                 1.4533                 1.4663
 IR Inten    --     11.8868                 8.4346                23.7333

                     67                     68                     69
                      A                      A                      A
 Frequencies --   1498.4638              1502.6648              1506.4510
 Red. masses --      1.0838                 1.0975                 1.1015
 Frc consts  --      1.4338                 1.4600                 1.4728
 IR Inten    --      3.2668                 5.7237                 7.8655

                     70                     71                     72
                      A                      A                      A
 Frequencies --   3024.0618              3033.3961              3034.4245
 Red. masses --      1.0828                 1.0705                 1.0710
 Frc consts  --      5.8343                 5.8038                 5.8105
 IR Inten    --     59.3668                82.6747                50.5913

                     73                     74                     75
                      A                      A                      A
 Frequencies --   3036.4700              3040.3464              3060.7270
 Red. masses --      1.0706                 1.0820                 1.0685
 Frc consts  --      5.8157                 5.8929                 5.8975
 IR Inten    --     39.4690               111.2788                25.1963

                     76                     77                     78
                      A                      A                      A
 Frequencies --   3069.2158              3071.5733              3074.1377
 Red. masses --      1.0618                 1.0615                 1.0600
 Frc consts  --      5.8930                 5.9004                 5.9020
 IR Inten    --     38.5974                46.3208                32.0957

                     79                     80                     81
                      A                      A                      A
 Frequencies --   3085.9305              3118.3007              3121.5155
 Red. masses --      1.0596                 1.0966                 1.1020
 Frc consts  --      5.9453                 6.2823                 6.3265
 IR Inten    --     22.6373                40.2233                59.6457

                     82                     83                     84
                      A                      A                      A
 Frequencies --   3124.8048              3128.0277              3136.3258
 Red. masses --      1.1043                 1.1037                 1.1041
 Frc consts  --      6.3531                 6.3629                 6.3990
 IR Inten    --     48.2461                51.6310                51.9527

                     85                     86                     87
                      A                      A                      A
 Frequencies --   3140.7653              3141.6297              3143.5484
 Red. masses --      1.0957                 1.0959                 1.0964
 Frc consts  --      6.3682                 6.3731                 6.3835
 IR Inten    --     37.6368                32.2155                38.0555

 - Thermochemistry -
 -------------------
 Temperature   298.150 Kelvin.  Pressure   1.00000 Atm.
 Atom     1 has atomic number  6 and mass  12.00000

 Molecular mass:   186.12559 amu.
 Principal axes and moments of inertia in atomic units:
                           1         2         3
     Eigenvalues --   855.420314696.623635164.67309
           X            0.99998   0.00628  -0.00009
           Y           -0.00627   0.99988   0.01433
           Z            0.00018  -0.01433   0.99990
 This molecule is an asymmetric top.
 Rotational symmetry number  1.
 Warning -- assumption of classical behavior for rotation
           may cause significant error
 Rotational temperatures (Kelvin)      0.10125     0.01844     0.01677
 Rotational constants (GHZ):           2.10977     0.38426     0.34944
    1 imaginary frequencies ignored.
 Zero-point vibrational energy     736039.4 (Joules/Mol)
                                  175.91763 (Kcal/Mol)
 Warning -- explicit consideration of  17 degrees of freedom as
           vibrations may cause significant error
 Vibrational temperatures:    100.59   114.50   229.07   287.92   355.28
          (Kelvin)            362.18   394.09   447.93   516.14   551.28
                              626.29   666.25   681.42   709.89   760.25
                              790.78   872.52   936.17  1197.91  1200.72
                             1210.51  1242.59  1267.56  1296.67  1343.43
                             1349.38  1379.91  1423.65  1444.19  1460.18
                             1493.67  1522.13  1565.16  1582.82  1611.03
                             1621.77  1664.73  1680.72  1703.81  1712.65
                             1731.34  1756.85  1783.34  1830.01  1839.90
                             1841.57  1892.18  1901.34  1928.30  1943.28
                             1956.56  1967.46  1993.67  1996.49  1998.49
                             2021.12  2028.52  2045.43  2056.55  2081.47
                             2108.64  2115.91  2118.94  2130.94  2144.24
                             2155.96  2162.00  2167.45  4350.95  4364.38
                             4365.86  4368.80  4374.38  4403.70  4415.92
                             4419.31  4423.00  4439.97  4486.54  4491.16
                             4495.90  4500.53  4512.47  4518.86  4520.10
                             4522.86

 Zero-point correction=                           0.280343 (Hartree/Particle)
 Thermal correction to Energy=                    0.291229
 Thermal correction to Enthalpy=                  0.292173
 Thermal correction to Gibbs Free Energy=         0.243708
 Sum of electronic and zero-point Energies=           -617.226248
 Sum of electronic and thermal Energies=              -617.215362
 Sum of electronic and thermal Enthalpies=            -617.214418
 Sum of electronic and thermal Free Energies=         -617.262883

                     E (Thermal)             CV                S
                      KCal/Mol        Cal/Mol-Kelvin    Cal/Mol-Kelvin
 Total                  182.749             44.885            102.002
 Electronic               0.000              0.000              0.000
 Translational            0.889              2.981             41.570
 Rotational               0.889              2.981             31.407
 Vibrational            180.971             38.924             29.026
 Vibration     1          0.598              1.968              4.156
 Vibration     2          0.600              1.963              3.901
 Vibration     3          0.621              1.892              2.559
 Vibration     4          0.638              1.840              2.132
 Vibration     5          0.661              1.768              1.752
 Vibration     6          0.664              1.760              1.718
 Vibration     7          0.676              1.722              1.571
 Vibration     8          0.700              1.652              1.355
 Vibration     9          0.734              1.557              1.128
 Vibration    10          0.752              1.506              1.027
 Vibration    11          0.796              1.393              0.842
 Vibration    12          0.821              1.332              0.757
 Vibration    13          0.830              1.309              0.728
 Vibration    14          0.849              1.265              0.675
 Vibration    15          0.883              1.187              0.591
 Vibration    16          0.905              1.141              0.545
 Vibration    17          0.965              1.018              0.439

 Optimization completed.
    -- Stationary point found.
 Normal termination of Gaussian 16 at Sat Mar  9 16:36:28 2019.
