 Gaussian 16, Revision B.01,
 Gaussian 16:  ES64L-G16RevB.01 20-Dec-2017

 ----------------------------------------------------------------------
 #M062X/6-311++G(2d,2p) opt=ModRedundant freq=noraman SCRF=(SMD,solvent
 =water)
 ----------------------------------------------------------------------

 -------------------------------
 4c1_b1_e3_4c1_PSI.inp_extract_9
 -------------------------------
 Symbolic Z-matrix:
 Charge =  0 Multiplicity = 1

 SCF Done:  E(RM062X) =  -617.504713802     A.U. after   12 cycles
 SCF Done:  E(RM062X) =  -617.506344886     A.U. after   10 cycles
 SCF Done:  E(RM062X) =  -617.506631389     A.U. after   10 cycles
 SCF Done:  E(RM062X) =  -617.506723024     A.U. after    9 cycles
 SCF Done:  E(RM062X) =  -617.506726771     A.U. after    8 cycles
 SCF Done:  E(RM062X) =  -617.506727065     A.U. after    7 cycles
 Optimization completed.
    -- Stationary point found.
 Normal termination of Gaussian 16 at Sat Mar  9 13:51:56 2019.

 ----------------------------------------------------------------------
 #N Geom=AllCheck Guess=TCheck SCRF=Check GenChk RM062X/6-311++G(2d,2p)
  Freq
 ----------------------------------------------------------------------

 Structure from the checkpoint file:  "4c1_b1_e3_4c1_PSI.inp_extract_9.chk"
 -------------------------------
 4c1_b1_e3_4c1_PSI.inp_extract_9
 -------------------------------
 Charge =  0 Multiplicity = 1

                         Standard orientation:
 ---------------------------------------------------------------------
 Center     Atomic      Atomic             Coordinates (Angstroms)
 Number     Number       Type             X           Y           Z
 ---------------------------------------------------------------------
      1          6           0        1.420569    1.070694    0.264395
      2          6           0        3.421102   -0.868420   -0.412018
      3          6           0       -2.197291   -1.363025    0.126351
      4          6           0        1.283017   -0.359081    0.773918
      5          6           0        1.983205   -1.309476   -0.189222
      6          8           0       -1.509493    0.898645    0.616216
      7          6           0       -3.343536   -0.838098   -0.738236
      8          8           0        3.482697    0.471092   -0.890138
      9          6           0       -3.737226    0.567976   -0.291711
     10          6           0       -1.060127   -0.362119    0.138650
     11          6           0       -2.506694    1.456011   -0.242380
     12          6           0        2.897351    1.371922    0.042927
     13          8           0       -0.062493   -0.814598    1.004446
     14          1           0        0.891480    1.200200   -0.680697
     15          1           0        1.016517    1.782035    0.983948
     16          1           0        3.911232   -1.489476   -1.158309
     17          1           0        3.985855   -0.938953    0.524574
     18          1           0       -2.529774   -1.507055    1.157199
     19          1           0       -1.822849   -2.315151   -0.249389
     20          1           0        1.762963   -0.425959    1.751882
     21          1           0        1.970574   -2.323593    0.211337
     22          1           0        1.449878   -1.310210   -1.143396
     23          1           0       -4.195114   -1.515336   -0.687439
     24          1           0       -3.018203   -0.804754   -1.781473
     25          1           0       -4.185798    0.531620    0.703631
     26          1           0       -4.468844    1.004816   -0.972023
     27          1           0       -0.667896   -0.228515   -0.877167
     28          1           0       -2.084605    1.578352   -1.246746
     29          1           0       -2.734206    2.441383    0.158011
     30          1           0        3.443145    1.309719    0.991206
     31          1           0        3.027736    2.371457   -0.365373
 ---------------------------------------------------------------------

 SCF Done:  E(RM062X) =  -617.506727065     A.U. after    1 cycles

 The electronic state is 1-A.
 Alpha  occ. eigenvalues --  -19.63411 -19.62931 -19.62775 -10.63125 -10.58625
 Alpha  occ. eigenvalues --  -10.57647 -10.57592 -10.57441 -10.52566 -10.52494
 Alpha  occ. eigenvalues --  -10.52364 -10.52354 -10.52208  -1.19663  -1.16215
 Alpha  occ. eigenvalues --   -1.13458  -0.90534  -0.89336  -0.86111  -0.84684
 Alpha  occ. eigenvalues --   -0.74902  -0.73166  -0.72043  -0.70056  -0.65781
 Alpha  occ. eigenvalues --   -0.64454  -0.59474  -0.57250  -0.56243  -0.54394
 Alpha  occ. eigenvalues --   -0.53950  -0.52571  -0.52344  -0.50714  -0.50187
 Alpha  occ. eigenvalues --   -0.49550  -0.46535  -0.45601  -0.44732  -0.43897
 Alpha  occ. eigenvalues --   -0.42254  -0.41375  -0.41108  -0.40169  -0.39288
 Alpha  occ. eigenvalues --   -0.38574  -0.37207  -0.36500  -0.34088  -0.33214
 Alpha  occ. eigenvalues --   -0.32164
 Alpha virt. eigenvalues --    0.00465   0.01285   0.01375   0.01479   0.02721
 Alpha virt. eigenvalues --    0.02894   0.03037   0.04013   0.04057   0.04942
 Alpha virt. eigenvalues --    0.05033   0.05435   0.05965   0.06115   0.07525

 Mulliken charges:
               1
     1  C   -0.079977
     2  C   -0.298073
     3  C   -0.304523
     4  C   -0.359275
     5  C   -0.101747
     6  O   -0.405742
     7  C   -0.391044
     8  O   -0.367765
     9  C   -0.373795
    10  C    0.086998
    11  C   -0.092054
    12  C   -0.446162
    13  O   -0.405497
    14  H    0.209419
    15  H    0.208339
    16  H    0.207303
    17  H    0.167337
    18  H    0.201604
    19  H    0.167158
    20  H    0.277702
    21  H    0.183321
    22  H    0.172131
    23  H    0.202584
    24  H    0.172299
    25  H    0.162993
    26  H    0.181803
    27  H    0.292308
    28  H    0.148911
    29  H    0.204020
    30  H    0.174849
    31  H    0.204577
 Sum of Mulliken charges =  -0.00000

 Dipole moment (field-independent basis, Debye):
    X=             -1.3948    Y=             -0.3036    Z=             -1.5501  Tot=              2.1073
 Quadrupole moment (field-independent basis, Debye-Ang):
   XX=            -76.2854   YY=            -76.4055   ZZ=            -84.1996
   XY=             -3.8847   XZ=             11.1387   YZ=              1.7715

  Exact polarizability: 184.104  -3.088 176.910   2.016  -0.117 167.065
 Approx polarizability: 145.719  -2.290 144.656   1.082  -0.545 142.652

                      1                      2                      3
                      A                      A                      A
 Frequencies --     47.3226                68.7900                77.1182
 Red. masses --      3.4415                 3.5216                 3.8930
 Frc consts  --      0.0045                 0.0098                 0.0136
 IR Inten    --      3.8463                 1.2916                 2.8915

                      4                      5                      6
                      A                      A                      A
 Frequencies --    148.3912               220.0285               247.9993
 Red. masses --      3.4735                 3.2508                 1.8535
 Frc consts  --      0.0451                 0.0927                 0.0672
 IR Inten    --      4.8278                 4.7420                 1.2121

                      7                      8                      9
                      A                      A                      A
 Frequencies --    250.9002               289.4363               315.8491
 Red. masses --      2.3848                 3.2954                 3.1985
 Frc consts  --      0.0885                 0.1627                 0.1880
 IR Inten    --      7.5232                 6.2728                 7.5262

                     10                     11                     12
                      A                      A                      A
 Frequencies --    365.9255               390.8454               429.7816
 Red. masses --      2.1246                 2.7393                 3.1071
 Frc consts  --      0.1676                 0.2465                 0.3381
 IR Inten    --     11.4902                 5.8703                 2.5669

                     13                     14                     15
                      A                      A                      A
 Frequencies --    462.9021               468.6117               487.3383
 Red. masses --      2.7685                 3.7619                 2.7774
 Frc consts  --      0.3495                 0.4867                 0.3886
 IR Inten    --      2.6205                 1.1040                 2.7464

                     16                     17                     18
                      A                      A                      A
 Frequencies --    535.5573               557.3599               600.7209
 Red. masses --      2.2687                 2.5957                 2.3116
 Frc consts  --      0.3834                 0.4751                 0.4915
 IR Inten    --      5.3950                 2.2993                 7.5232

                     19                     20                     21
                      A                      A                      A
 Frequencies --    669.3315               830.8030               832.9460
 Red. masses --      3.1311                 1.4847                 1.8855
 Frc consts  --      0.8265                 0.6038                 0.7707
 IR Inten    --     34.1549                 3.3571                 6.2974

                     22                     23                     24
                      A                      A                      A
 Frequencies --    840.4094               863.8534               879.6823
 Red. masses --      2.3179                 2.0047                 2.0609
 Frc consts  --      0.9646                 0.8814                 0.9396
 IR Inten    --     10.9059                18.7023                39.7296

                     25                     26                     27
                      A                      A                      A
 Frequencies --    897.8422               931.2000               937.7692
 Red. masses --      2.3023                 2.3530                 1.8999
 Frc consts  --      1.0935                 1.2022                 0.9844
 IR Inten    --     18.3310                42.6870                18.1930

                     28                     29                     30
                      A                      A                      A
 Frequencies --    958.4323               987.5360              1001.8910
 Red. masses --      2.2045                 1.7055                 1.4311
 Frc consts  --      1.1931                 0.9800                 0.8464
 IR Inten    --      5.8043                35.1249                20.9957

                     31                     32                     33
                      A                      A                      A
 Frequencies --   1015.6768              1036.3554              1056.4174
 Red. masses --      2.1254                 2.1176                 1.5502
 Frc consts  --      1.2918                 1.3400                 1.0193
 IR Inten    --     13.7167                38.4597               104.6042

                     34                     35                     36
                      A                      A                      A
 Frequencies --   1081.4177              1100.4517              1116.7194
 Red. masses --      2.9661                 2.6019                 4.0148
 Frc consts  --      2.0437                 1.8565                 2.9498
 IR Inten    --     27.4730                77.6197               301.7422

                     37                     38                     39
                      A                      A                      A
 Frequencies --   1130.9937              1155.4527              1173.3407
 Red. masses --      3.2100                 2.2614                 2.3579
 Frc consts  --      2.4193                 1.7788                 1.9126
 IR Inten    --     28.5041                 3.3901                43.0729

                     40                     41                     42
                      A                      A                      A
 Frequencies --   1181.2059              1201.3662              1203.4740
 Red. masses --      2.6647                 1.3820                 1.7578
 Frc consts  --      2.1905                 1.1752                 1.5000
 IR Inten    --    115.3718                35.8575               159.3993

                     43                     44                     45
                      A                      A                      A
 Frequencies --   1208.7219              1238.4963              1270.4950
 Red. masses --      2.6866                 1.6636                 1.3115
 Frc consts  --      2.3127                 1.5034                 1.2473
 IR Inten    --    186.6232                31.3413                26.0319

                     46                     47                     48
                      A                      A                      A
 Frequencies --   1278.9094              1290.1263              1314.6882
 Red. masses --      1.2267                 1.3363                 1.1911
 Frc consts  --      1.1821                 1.3105                 1.2129
 IR Inten    --      2.3720                32.5061                33.3892

                     49                     50                     51
                      A                      A                      A
 Frequencies --   1329.0816              1336.8043              1352.5752
 Red. masses --      1.3928                 1.2856                 1.3327
 Frc consts  --      1.4496                 1.3536                 1.4365
 IR Inten    --     29.1247                 7.4756                 5.9442

                     52                     53                     54
                      A                      A                      A
 Frequencies --   1367.0273              1371.7741              1383.7347
 Red. masses --      1.4208                 1.2802                 1.4936
 Frc consts  --      1.5644                 1.4193                 1.6850
 IR Inten    --      1.1669                25.1802                 4.0663

                     55                     56                     57
                      A                      A                      A
 Frequencies --   1388.5509              1399.0840              1401.5694
 Red. masses --      1.3604                 1.2838                 1.3569
 Frc consts  --      1.5454                 1.4806                 1.5704
 IR Inten    --      3.9551                 3.8671                20.9271

                     58                     59                     60
                      A                      A                      A
 Frequencies --   1417.7830              1425.5645              1429.5086
 Red. masses --      1.3337                 1.3398                 1.3352
 Frc consts  --      1.5795                 1.6042                 1.6076
 IR Inten    --     11.0973                44.1580                 3.0272

                     61                     62                     63
                      A                      A                      A
 Frequencies --   1446.4277              1466.1144              1470.3759
 Red. masses --      1.4606                 1.1028                 1.1078
 Frc consts  --      1.8004                 1.3967                 1.4111
 IR Inten    --     68.3990                 6.3066                 4.2155

                     64                     65                     66
                      A                      A                      A
 Frequencies --   1474.4704              1480.3414              1490.1619
 Red. masses --      1.1139                 1.1296                 1.1213
 Frc consts  --      1.4269                 1.4584                 1.4670
 IR Inten    --     10.0381                 5.8566                23.6508

                     67                     68                     69
                      A                      A                      A
 Frequencies --   1500.6991              1503.1119              1509.2707
 Red. masses --      1.0824                 1.0978                 1.1018
 Frc consts  --      1.4362                 1.4613                 1.4787
 IR Inten    --      2.8848                 5.9841                10.2225

                     70                     71                     72
                      A                      A                      A
 Frequencies --   3031.2610              3033.8621              3034.8863
 Red. masses --      1.0729                 1.0799                 1.0701
 Frc consts  --      5.8085                 5.8566                 5.8073
 IR Inten    --     29.0553               101.8833                56.7159

                     73                     74                     75
                      A                      A                      A
 Frequencies --   3036.8875              3060.4809              3066.4021
 Red. masses --      1.0701                 1.0685                 1.0631
 Frc consts  --      5.8146                 5.8968                 5.8898
 IR Inten    --     83.8803                23.4131                18.0394

                     76                     77                     78
                      A                      A                      A
 Frequencies --   3068.7244              3070.8886              3082.8211
 Red. masses --      1.0618                 1.0612                 1.0720
 Frc consts  --      5.8914                 5.8962                 6.0026
 IR Inten    --     36.7395                52.5271                 7.5270

                     79                     80                     81
                      A                      A                      A
 Frequencies --   3088.9114              3117.9326              3120.9890
 Red. masses --      1.0721                 1.0967                 1.1015
 Frc consts  --      6.0271                 6.2816                 6.3217
 IR Inten    --     55.2046                40.3739                55.3632

                     82                     83                     84
                      A                      A                      A
 Frequencies --   3123.6932              3126.3331              3138.2969
 Red. masses --      1.1023                 1.1043                 1.1023
 Frc consts  --      6.3368                 6.3592                 6.3965
 IR Inten    --     51.6999                57.3998                63.2904

                     85                     86                     87
                      A                      A                      A
 Frequencies --   3139.7159              3141.7196              3144.0338
 Red. masses --      1.0956                 1.0961                 1.0971
 Frc consts  --      6.3633                 6.3743                 6.3898
 IR Inten    --     30.6685                29.1728                39.3224

 - Thermochemistry -
 -------------------
 Temperature   298.150 Kelvin.  Pressure   1.00000 Atm.
 Atom     1 has atomic number  6 and mass  12.00000

 Molecular mass:   186.12559 amu.
 Principal axes and moments of inertia in atomic units:
                           1         2         3
     Eigenvalues --   966.802904404.586094861.15572
           X            0.99994  -0.00219   0.01097
           Y            0.00200   0.99986   0.01685
           Z           -0.01100  -0.01682   0.99980
 This molecule is an asymmetric top.
 Rotational symmetry number  1.
 Warning -- assumption of classical behavior for rotation
           may cause significant error
 Rotational temperatures (Kelvin)      0.08959     0.01966     0.01782
 Rotational constants (GHZ):           1.86671     0.40974     0.37126
 Zero-point vibrational energy     737035.7 (Joules/Mol)
                                  176.15577 (Kcal/Mol)
 Warning -- explicit consideration of  18 degrees of freedom as
           vibrations may cause significant error
 Vibrational temperatures:     68.09    98.97   110.96   213.50   316.57
          (Kelvin)            356.82   360.99   416.43   454.44   526.49
                              562.34   618.36   666.01   674.23   701.17
                              770.55   801.92   864.30   963.02  1195.34
                             1198.42  1209.16  1242.89  1265.67  1291.79
                             1339.79  1349.24  1378.97  1420.84  1441.50
                             1461.33  1491.08  1519.95  1555.92  1583.30
                             1606.71  1627.25  1662.44  1688.18  1699.49
                             1728.50  1731.53  1739.08  1781.92  1827.96
                             1840.07  1856.20  1891.54  1912.25  1923.36
                             1946.05  1966.85  1973.68  1990.89  1997.82
                             2012.97  2016.55  2039.87  2051.07  2056.74
                             2081.09  2109.41  2115.54  2121.43  2129.88
                             2144.01  2159.17  2162.64  2171.50  4361.31
                             4365.05  4366.52  4369.40  4403.35  4411.87
                             4415.21  4418.32  4435.49  4444.25  4486.01
                             4490.41  4494.30  4498.10  4515.31  4517.35
                             4520.23  4523.56

 Zero-point correction=                           0.280722 (Hartree/Particle)
 Thermal correction to Energy=                    0.292403
 Thermal correction to Enthalpy=                  0.293347
 Thermal correction to Gibbs Free Energy=         0.242600
 Sum of electronic and zero-point Energies=           -617.226005
 Sum of electronic and thermal Energies=              -617.214324
 Sum of electronic and thermal Enthalpies=            -617.213380
 Sum of electronic and thermal Free Energies=         -617.264127

                     E (Thermal)             CV                S
                      KCal/Mol        Cal/Mol-Kelvin    Cal/Mol-Kelvin
 Total                  183.486             46.769            106.807
 Electronic               0.000              0.000              0.000
 Translational            0.889              2.981             41.570
 Rotational               0.889              2.981             31.404
 Vibrational            181.708             40.807             33.833
 Vibration     1          0.595              1.979              4.926
 Vibration     2          0.598              1.969              4.188
 Vibration     3          0.599              1.964              3.963
 Vibration     4          0.618              1.904              2.693
 Vibration     5          0.647              1.811              1.959
 Vibration     6          0.662              1.766              1.745
 Vibration     7          0.663              1.761              1.724
 Vibration     8          0.686              1.693              1.477
 Vibration     9          0.703              1.643              1.332
 Vibration    10          0.739              1.542              1.097
 Vibration    11          0.759              1.490              0.997
 Vibration    12          0.791              1.405              0.859
 Vibration    13          0.821              1.332              0.758
 Vibration    14          0.826              1.320              0.741
 Vibration    15          0.843              1.278              0.691
 Vibration    16          0.891              1.171              0.575
 Vibration    17          0.913              1.124              0.529
 Vibration    18          0.959              1.030              0.448

 Optimization completed.
    -- Stationary point found.
 Normal termination of Gaussian 16 at Sat Mar  9 14:55:32 2019.
