 Gaussian 16, Revision B.01,
 Gaussian 16:  ES64L-G16RevB.01 20-Dec-2017

 ----------------------------------------------------------------------
 #M062X/6-311++G(2d,2p) opt=ModRedundant freq=noraman SCRF=(SMD,solvent
 =water)
 ----------------------------------------------------------------------

 -------------------------------
 4c1_b1_e3_4c1_PSI.inp_extract_8
 -------------------------------
 Symbolic Z-matrix:
 Charge =  0 Multiplicity = 1

 SCF Done:  E(RM062X) =  -617.502727537     A.U. after   12 cycles
 SCF Done:  E(RM062X) =  -617.504301701     A.U. after   11 cycles
 SCF Done:  E(RM062X) =  -617.504547538     A.U. after   10 cycles
 SCF Done:  E(RM062X) =  -617.504657992     A.U. after    9 cycles
 SCF Done:  E(RM062X) =  -617.504669128     A.U. after    8 cycles
 SCF Done:  E(RM062X) =  -617.504669998     A.U. after    7 cycles
 SCF Done:  E(RM062X) =  -617.504670097     A.U. after    6 cycles
 Optimization completed.
    -- Stationary point found.
 Normal termination of Gaussian 16 at Sat Mar  9 13:31:51 2019.

 ----------------------------------------------------------------------
 #N Geom=AllCheck Guess=TCheck SCRF=Check GenChk RM062X/6-311++G(2d,2p)
  Freq
 ----------------------------------------------------------------------

 Structure from the checkpoint file:  "4c1_b1_e3_4c1_PSI.inp_extract_8.chk"
 -------------------------------
 4c1_b1_e3_4c1_PSI.inp_extract_8
 -------------------------------
 Charge =  0 Multiplicity = 1

                         Standard orientation:
 ---------------------------------------------------------------------
 Center     Atomic      Atomic             Coordinates (Angstroms)
 Number     Number       Type             X           Y           Z
 ---------------------------------------------------------------------
      1          6           0       -1.381804    1.048588   -0.091990
      2          6           0       -3.537735   -0.815295    0.236998
      3          6           0        2.215697   -1.381336   -0.016062
      4          6           0       -1.272340   -0.341526   -0.708551
      5          6           0       -2.109344   -1.317716    0.107991
      6          8           0        1.530467    0.840684   -0.663309
      7          6           0        3.401219   -0.801222    0.755311
      8          8           0       -3.576649    0.485263    0.814273
      9          6           0        3.789833    0.558301    0.178877
     10          6           0        1.088222   -0.370089   -0.064439
     11          6           0        2.566878    1.455091    0.105303
     12          6           0       -2.856365    1.417496    0.017138
     13          8           0        0.055413   -0.886469   -0.846306
     14          1           0       -0.943757    1.070294    0.906372
     15          1           0       -0.878225    1.793585   -0.705730
     16          1           0       -4.125080   -1.462389    0.884479
     17          1           0       -4.016302   -0.782833   -0.748402
     18          1           0        2.503945   -1.612996   -1.044207
     19          1           0        1.849508   -2.294844    0.452000
     20          1           0       -1.665344   -0.297038   -1.726376
     21          1           0       -2.109307   -2.298931   -0.367720
     22          1           0       -1.663822   -1.417726    1.101307
     23          1           0        4.243630   -1.491098    0.725871
     24          1           0        3.119708   -0.678784    1.804619
     25          1           0        4.196908    0.434296   -0.827193
     26          1           0        4.553018    1.039763    0.790975
     27          1           0        0.743014   -0.148421    0.952480
     28          1           0        2.187512    1.665634    1.112074
     29          1           0        2.786969    2.400843   -0.384746
     30          1           0       -3.309679    1.462535   -0.979548
     31          1           0       -2.972112    2.388537    0.493025
 ---------------------------------------------------------------------

 SCF Done:  E(RM062X) =  -617.504670097     A.U. after    1 cycles

 The electronic state is 1-A.
 Alpha  occ. eigenvalues --  -19.63330 -19.62920 -19.62773 -10.63145 -10.58646
 Alpha  occ. eigenvalues --  -10.57673 -10.57567 -10.57446 -10.52608 -10.52491
 Alpha  occ. eigenvalues --  -10.52355 -10.52335 -10.52206  -1.19597  -1.16224
 Alpha  occ. eigenvalues --   -1.13388  -0.90612  -0.89338  -0.86139  -0.84635
 Alpha  occ. eigenvalues --   -0.74989  -0.73170  -0.72017  -0.69889  -0.65740
 Alpha  occ. eigenvalues --   -0.64466  -0.59553  -0.57194  -0.56336  -0.54368
 Alpha  occ. eigenvalues --   -0.53972  -0.52512  -0.52449  -0.50774  -0.50080
 Alpha  occ. eigenvalues --   -0.49623  -0.46523  -0.45610  -0.44579  -0.43719
 Alpha  occ. eigenvalues --   -0.42607  -0.41248  -0.41098  -0.40029  -0.39233
 Alpha  occ. eigenvalues --   -0.38461  -0.37214  -0.36588  -0.34135  -0.33214
 Alpha  occ. eigenvalues --   -0.32052
 Alpha virt. eigenvalues --    0.00467   0.01295   0.01360   0.01482   0.02698
 Alpha virt. eigenvalues --    0.02881   0.03046   0.04014   0.04042   0.04883
 Alpha virt. eigenvalues --    0.05039   0.05427   0.05963   0.06092   0.07565

 Mulliken charges:
               1
     1  C   -0.039921
     2  C   -0.280693
     3  C   -0.305174
     4  C   -0.305925
     5  C   -0.103249
     6  O   -0.404565
     7  C   -0.395445
     8  O   -0.370790
     9  C   -0.384272
    10  C    0.110033
    11  C   -0.087304
    12  C   -0.532523
    13  O   -0.431911
    14  H    0.218776
    15  H    0.199770
    16  H    0.210478
    17  H    0.162894
    18  H    0.201226
    19  H    0.171903
    20  H    0.276022
    21  H    0.182722
    22  H    0.174699
    23  H    0.205179
    24  H    0.171271
    25  H    0.162109
    26  H    0.182069
    27  H    0.278575
    28  H    0.151821
    29  H    0.201618
    30  H    0.176599
    31  H    0.204010
 Sum of Mulliken charges =  -0.00000

 Dipole moment (field-independent basis, Debye):
    X=              1.6742    Y=              0.1734    Z=              1.4181  Tot=              2.2009
 Quadrupole moment (field-independent basis, Debye-Ang):
   XX=            -76.9298   YY=            -76.5041   ZZ=            -83.5268
   XY=              4.1459   XZ=             10.8207   YZ=             -1.5457

  Exact polarizability: 184.707   3.291 177.123   2.225   0.297 166.547
 Approx polarizability: 145.968   2.368 144.777   1.065   0.653 142.281

 ******    1 imaginary frequencies (negative Signs) ******

                      1                      2                      3
                      A                      A                      A
 Frequencies --    -51.4448                64.5226                79.4738
 Red. masses --      3.3372                 3.7824                 3.9849
 Frc consts  --      0.0052                 0.0093                 0.0148
 IR Inten    --      3.6880                 2.1448                 2.3795

                      4                      5                      6
                      A                      A                      A
 Frequencies --    145.5048               216.1356               241.9582
 Red. masses --      3.3912                 3.1581                 1.8668
 Frc consts  --      0.0423                 0.0869                 0.0644
 IR Inten    --      5.1164                 5.6069                 1.1220

                      7                      8                      9
                      A                      A                      A
 Frequencies --    251.4013               277.2966               304.1141
 Red. masses --      2.3578                 3.3297                 3.8027
 Frc consts  --      0.0878                 0.1509                 0.2072
 IR Inten    --      7.5814                 8.7220                 4.2734

                     10                     11                     12
                      A                      A                      A
 Frequencies --    362.2195               382.8912               429.0770
 Red. masses --      2.0067                 2.5417                 3.0129
 Frc consts  --      0.1551                 0.2195                 0.3268
 IR Inten    --      8.4424                 6.4313                 3.0010

                     13                     14                     15
                      A                      A                      A
 Frequencies --    461.8798               470.3560               479.3519
 Red. masses --      2.7349                 3.5509                 2.7262
 Frc consts  --      0.3438                 0.4628                 0.3691
 IR Inten    --      2.4273                 1.1409                 2.0315

                     16                     17                     18
                      A                      A                      A
 Frequencies --    533.3980               555.4587               603.8084
 Red. masses --      2.2709                 2.6550                 2.4865
 Frc consts  --      0.3807                 0.4826                 0.5341
 IR Inten    --      5.6940                 0.7663                 8.3952

                     19                     20                     21
                      A                      A                      A
 Frequencies --    664.6671               827.7867               832.0749
 Red. masses --      2.9896                 1.5033                 1.8827
 Frc consts  --      0.7782                 0.6069                 0.7680
 IR Inten    --     36.1114                 2.8379                 6.7341

                     22                     23                     24
                      A                      A                      A
 Frequencies --    838.2107               863.4777               879.6164
 Red. masses --      2.3579                 1.9326                 2.0842
 Frc consts  --      0.9761                 0.8490                 0.9501
 IR Inten    --     12.3468                18.9783                36.7282

                     25                     26                     27
                      A                      A                      A
 Frequencies --    897.0744               929.3895               936.4331
 Red. masses --      2.4106                 2.2847                 1.8483
 Frc consts  --      1.1430                 1.1627                 0.9550
 IR Inten    --     23.0539                42.1701                21.3600

                     28                     29                     30
                      A                      A                      A
 Frequencies --    957.3567               984.7968               999.8071
 Red. masses --      2.2390                 1.7234                 1.4763
 Frc consts  --      1.2091                 0.9848                 0.8695
 IR Inten    --      6.3490                33.1006                21.3754

                     31                     32                     33
                      A                      A                      A
 Frequencies --   1013.9319              1037.1308              1056.2283
 Red. masses --      2.0868                 2.1362                 1.5444
 Frc consts  --      1.2640                 1.3538                 1.0152
 IR Inten    --     12.4969                39.0691               104.5639

                     34                     35                     36
                      A                      A                      A
 Frequencies --   1077.0608              1097.5939              1116.5800
 Red. masses --      2.9893                 2.4495                 4.1117
 Frc consts  --      2.0432                 1.7386                 3.0203
 IR Inten    --     28.1501                67.2389               313.5250

                     37                     38                     39
                      A                      A                      A
 Frequencies --   1130.3194              1154.6329              1171.7781
 Red. masses --      3.0429                 2.2784                 2.5097
 Frc consts  --      2.2906                 1.7897                 2.0303
 IR Inten    --     26.9507                 2.9223                45.0113

                     40                     41                     42
                      A                      A                      A
 Frequencies --   1181.1290              1196.4455              1202.4562
 Red. masses --      2.4802                 1.3940                 1.7967
 Frc consts  --      2.0386                 1.1757                 1.5306
 IR Inten    --     95.9979                39.6439               182.5442

                     43                     44                     45
                      A                      A                      A
 Frequencies --   1210.7713              1237.9115              1271.3521
 Red. masses --      2.6638                 1.6514                 1.3217
 Frc consts  --      2.3008                 1.4910                 1.2587
 IR Inten    --    193.7559                30.9074                26.8520

                     46                     47                     48
                      A                      A                      A
 Frequencies --   1278.1200              1282.9964              1314.0602
 Red. masses --      1.2331                 1.3048                 1.1956
 Frc consts  --      1.1869                 1.2655                 1.2164
 IR Inten    --      0.9694                20.4617                36.9467

                     49                     50                     51
                      A                      A                      A
 Frequencies --   1327.3258              1336.9427              1349.1678
 Red. masses --      1.4125                 1.2984                 1.3152
 Frc consts  --      1.4662                 1.3674                 1.4105
 IR Inten    --     39.0989                 9.5648                 2.3409

                     52                     53                     54
                      A                      A                      A
 Frequencies --   1366.2935              1369.3070              1383.6180
 Red. masses --      1.3660                 1.2928                 1.4384
 Frc consts  --      1.5024                 1.4281                 1.6224
 IR Inten    --      8.0839                19.2747                11.8263

                     55                     56                     57
                      A                      A                      A
 Frequencies --   1387.1967              1389.4141              1400.7454
 Red. masses --      1.3585                 1.2656                 1.4187
 Frc consts  --      1.5402                 1.4394                 1.6401
 IR Inten    --      2.8233                26.3603                12.6665

                     58                     59                     60
                      A                      A                      A
 Frequencies --   1415.9551              1423.9618              1429.1773
 Red. masses --      1.3371                 1.3559                 1.3384
 Frc consts  --      1.5794                 1.6198                 1.6107
 IR Inten    --     11.7736                39.7268                 4.1963

                     61                     62                     63
                      A                      A                      A
 Frequencies --   1436.7131              1464.7426              1470.8001
 Red. masses --      1.5660                 1.1031                 1.1114
 Frc consts  --      1.9045                 1.3945                 1.4165
 IR Inten    --     57.8694                 5.3579                 3.9182

                     64                     65                     66
                      A                      A                      A
 Frequencies --   1473.2044              1478.0758              1489.7170
 Red. masses --      1.1023                 1.1258                 1.1181
 Frc consts  --      1.4095                 1.4492                 1.4620
 IR Inten    --      9.6180                 6.9110                21.5577

                     67                     68                     69
                      A                      A                      A
 Frequencies --   1499.5196              1505.7581              1508.9201
 Red. masses --      1.0821                 1.0953                 1.1017
 Frc consts  --      1.4336                 1.4631                 1.4779
 IR Inten    --      2.9304                 5.8764                 9.5304

                     70                     71                     72
                      A                      A                      A
 Frequencies --   3032.5144              3034.7407              3035.4553
 Red. masses --      1.0715                 1.0707                 1.0733
 Frc consts  --      5.8056                 5.8101                 5.8268
 IR Inten    --     44.4158                28.6498               155.4866

                     73                     74                     75
                      A                      A                      A
 Frequencies --   3035.7716              3059.8686              3063.8275
 Red. masses --      1.0777                 1.0685                 1.0649
 Frc consts  --      5.8520                 5.8942                 5.8895
 IR Inten    --     41.5890                24.7779                13.9045

                     76                     77                     78
                      A                      A                      A
 Frequencies --   3069.4625              3071.3391              3077.6827
 Red. masses --      1.0619                 1.0616                 1.0815
 Frc consts  --      5.8945                 5.9002                 6.0355
 IR Inten    --     36.0320                53.5773                38.7629

                     79                     80                     81
                      A                      A                      A
 Frequencies --   3091.5622              3118.2250              3121.5217
 Red. masses --      1.0619                 1.0963                 1.1023
 Frc consts  --      5.9799                 6.2803                 6.3282
 IR Inten    --     41.2351                40.0481                57.9488

                     82                     83                     84
                      A                      A                      A
 Frequencies --   3123.2846              3128.1364              3140.8147
 Red. masses --      1.1019                 1.1036                 1.0952
 Frc consts  --      6.3330                 6.3627                 6.3655
 IR Inten    --     52.5364                53.2084                54.9270

                     85                     86                     87
                      A                      A                      A
 Frequencies --   3141.4921              3143.3162              3146.6990
 Red. masses --      1.0955                 1.0951                 1.1043
 Frc consts  --      6.3697                 6.3750                 6.4422
 IR Inten    --     39.8268                24.7367                34.9420

 - Thermochemistry -
 -------------------
 Temperature   298.150 Kelvin.  Pressure   1.00000 Atm.
 Atom     1 has atomic number  6 and mass  12.00000

 Molecular mass:   186.12559 amu.
 Principal axes and moments of inertia in atomic units:
                           1         2         3
     Eigenvalues --   928.166414514.857375012.45090
           X            0.99994   0.00252   0.01028
           Y           -0.00239   0.99991  -0.01315
           Z           -0.01031   0.01312   0.99986
 This molecule is an asymmetric top.
 Rotational symmetry number  1.
 Warning -- assumption of classical behavior for rotation
           may cause significant error
 Rotational temperatures (Kelvin)      0.09332     0.01918     0.01728
 Rotational constants (GHZ):           1.94442     0.39973     0.36005
    1 imaginary frequencies ignored.
 Zero-point vibrational energy     735956.4 (Joules/Mol)
                                  175.89781 (Kcal/Mol)
 Warning -- explicit consideration of  17 degrees of freedom as
           vibrations may cause significant error
 Vibrational temperatures:     92.83   114.35   209.35   310.97   348.12
          (Kelvin)            361.71   398.97   437.55   521.15   550.90
                              617.35   664.54   676.74   689.68   767.44
                              799.18   868.75   956.31  1191.00  1197.17
                             1206.00  1242.35  1265.57  1290.69  1337.18
                             1347.32  1377.42  1416.90  1438.50  1458.82
                             1492.20  1519.68  1549.65  1579.19  1606.51
                             1626.28  1661.26  1685.93  1699.38  1721.42
                             1730.07  1742.03  1781.08  1829.19  1838.93
                             1845.95  1890.64  1909.73  1923.56  1941.15
                             1965.79  1970.13  1990.72  1995.87  1999.06
                             2015.36  2037.24  2048.76  2056.27  2067.11
                             2107.44  2116.15  2119.61  2126.62  2143.37
                             2157.47  2166.45  2171.00  4363.11  4366.31
                             4367.34  4367.80  4402.47  4408.16  4416.27
                             4418.97  4428.10  4448.07  4486.43  4491.17
                             4493.71  4500.69  4518.93  4519.91  4522.53
                             4527.40

 Zero-point correction=                           0.280311 (Hartree/Particle)
 Thermal correction to Energy=                    0.291232
 Thermal correction to Enthalpy=                  0.292176
 Thermal correction to Gibbs Free Energy=         0.243569
 Sum of electronic and zero-point Energies=           -617.224359
 Sum of electronic and thermal Energies=              -617.213438
 Sum of electronic and thermal Enthalpies=            -617.212494
 Sum of electronic and thermal Free Energies=         -617.261101

                     E (Thermal)             CV                S
                      KCal/Mol        Cal/Mol-Kelvin    Cal/Mol-Kelvin
 Total                  182.751             44.959            102.302
 Electronic               0.000              0.000              0.000
 Translational            0.889              2.981             41.570
 Rotational               0.889              2.981             31.419
 Vibrational            180.973             38.998             29.314
 Vibration     1          0.597              1.971              4.314
 Vibration     2          0.600              1.963              3.904
 Vibration     3          0.617              1.908              2.730
 Vibration     4          0.645              1.816              1.991
 Vibration     5          0.658              1.776              1.788
 Vibration     6          0.663              1.760              1.721
 Vibration     7          0.678              1.715              1.550
 Vibration     8          0.695              1.666              1.394
 Vibration     9          0.736              1.550              1.113
 Vibration    10          0.752              1.507              1.028
 Vibration    11          0.790              1.407              0.862
 Vibration    12          0.820              1.335              0.761
 Vibration    13          0.827              1.316              0.737
 Vibration    14          0.836              1.296              0.712
 Vibration    15          0.888              1.176              0.580
 Vibration    16          0.911              1.128              0.533
 Vibration    17          0.962              1.024              0.443

 Optimization completed.
    -- Stationary point found.
 Normal termination of Gaussian 16 at Sat Mar  9 14:34:32 2019.
