 Gaussian 16, Revision B.01,
 Gaussian 16:  ES64L-G16RevB.01 20-Dec-2017

 ----------------------------------------------------------------------
 #M062X/6-311++G(2d,2p) opt=ModRedundant freq=noraman SCRF=(SMD,solvent
 =water)
 ----------------------------------------------------------------------

 --------------------------------
 4c1_b1_e3_4c1_PSI.inp_extract_12
 --------------------------------
 Symbolic Z-matrix:
 Charge =  0 Multiplicity = 1

 SCF Done:  E(RM062X) =  -617.503565430     A.U. after   12 cycles
 SCF Done:  E(RM062X) =  -617.505059905     A.U. after   10 cycles
 SCF Done:  E(RM062X) =  -617.505327618     A.U. after   10 cycles
 SCF Done:  E(RM062X) =  -617.505476625     A.U. after    9 cycles
 SCF Done:  E(RM062X) =  -617.505536629     A.U. after   10 cycles
 SCF Done:  E(RM062X) =  -617.505492116     A.U. after   10 cycles
 SCF Done:  E(RM062X) =  -617.505617680     A.U. after   10 cycles
 SCF Done:  E(RM062X) =  -617.505614805     A.U. after    9 cycles
 SCF Done:  E(RM062X) =  -617.505623267     A.U. after    9 cycles
 SCF Done:  E(RM062X) =  -617.505623953     A.U. after    9 cycles
 SCF Done:  E(RM062X) =  -617.505624852     A.U. after    8 cycles
 Optimization completed.
    -- Stationary point found.
 Normal termination of Gaussian 16 at Sat Mar  9 14:57:05 2019.

 ----------------------------------------------------------------------
 #N Geom=AllCheck Guess=TCheck SCRF=Check GenChk RM062X/6-311++G(2d,2p)
  Freq
 ----------------------------------------------------------------------

 Structure from the checkpoint file:  "4c1_b1_e3_4c1_PSI.inp_extract_12.chk"
 --------------------------------
 4c1_b1_e3_4c1_PSI.inp_extract_12
 --------------------------------
 Charge =  0 Multiplicity = 1

                         Standard orientation:
 ---------------------------------------------------------------------
 Center     Atomic      Atomic             Coordinates (Angstroms)
 Number     Number       Type             X           Y           Z
 ---------------------------------------------------------------------
      1          6           0       -1.704370    0.776522   -0.956181
      2          6           0       -3.119223   -0.703260    1.033725
      3          6           0        2.407799   -1.178166   -0.521852
      4          6           0       -1.265286   -0.637475   -0.598584
      5          6           0       -1.621488   -0.918357    0.853836
      6          8           0        1.241126    0.915310   -0.214168
      7          6           0        3.572434   -0.665667    0.324852
      8          8           0       -3.499149    0.622051    0.679387
      9          6           0        3.619066    0.859740    0.282213
     10          6           0        1.122172   -0.496008   -0.099158
     11          6           0        2.259327    1.425648    0.650121
     12          6           0       -3.197128    0.903000   -0.684516
     13          8           0        0.097783   -0.930276   -0.943749
     14          1           0       -1.166355    1.504755   -0.351170
     15          1           0       -1.505561    0.983163   -2.008574
     16          1           0       -3.408704   -0.840986    2.072949
     17          1           0       -3.680147   -1.414969    0.417799
     18          1           0        2.575644   -0.953458   -1.577839
     19          1           0        2.286415   -2.255833   -0.415048
     20          1           0       -1.830506   -1.332301   -1.224184
     21          1           0       -1.361980   -1.941721    1.128652
     22          1           0       -1.092980   -0.233472    1.519698
     23          1           0        4.510284   -1.093656   -0.026791
     24          1           0        3.435076   -0.991963    1.359224
     25          1           0        3.882418    1.197127   -0.722836
     26          1           0        4.368427    1.248845    0.972132
     27          1           0        0.897027   -0.734864    0.946498
     28          1           0        2.009258    1.169941    1.686141
     29          1           0        2.228867    2.507817    0.545262
     30          1           0       -3.759645    0.213675   -1.324425
     31          1           0       -3.545446    1.915355   -0.875979
 ---------------------------------------------------------------------

 SCF Done:  E(RM062X) =  -617.505624852     A.U. after    1 cycles

 The electronic state is 1-A.
 Alpha  occ. eigenvalues --  -19.63492 -19.62918 -19.62820 -10.63108 -10.58571
 Alpha  occ. eigenvalues --  -10.57707 -10.57557 -10.57460 -10.52620 -10.52495
 Alpha  occ. eigenvalues --  -10.52353 -10.52208 -10.52184  -1.19638  -1.16146
 Alpha  occ. eigenvalues --   -1.13474  -0.90684  -0.89322  -0.86089  -0.84735
 Alpha  occ. eigenvalues --   -0.75051  -0.72718  -0.72443  -0.69816  -0.65641
 Alpha  occ. eigenvalues --   -0.64740  -0.59483  -0.56909  -0.56333  -0.54318
 Alpha  occ. eigenvalues --   -0.54036  -0.52874  -0.51947  -0.50984  -0.50202
 Alpha  occ. eigenvalues --   -0.49523  -0.46574  -0.45318  -0.45101  -0.43965
 Alpha  occ. eigenvalues --   -0.42523  -0.41304  -0.40457  -0.40039  -0.39386
 Alpha  occ. eigenvalues --   -0.38536  -0.37189  -0.36467  -0.34168  -0.33187
 Alpha  occ. eigenvalues --   -0.32235
 Alpha virt. eigenvalues --    0.00477   0.01290   0.01371   0.01452   0.02718
 Alpha virt. eigenvalues --    0.02914   0.02962   0.03943   0.04062   0.05045
 Alpha virt. eigenvalues --    0.05101   0.05374   0.05821   0.06059   0.07439

 Mulliken charges:
               1
     1  C   -0.258919
     2  C   -0.413306
     3  C   -0.316742
     4  C   -0.124210
     5  C   -0.128061
     6  O   -0.390896
     7  C   -0.388802
     8  O   -0.366042
     9  C   -0.363379
    10  C    0.043719
    11  C   -0.154152
    12  C   -0.295338
    13  O   -0.413506
    14  H    0.212700
    15  H    0.189037
    16  H    0.204443
    17  H    0.173368
    18  H    0.196085
    19  H    0.181536
    20  H    0.295486
    21  H    0.195876
    22  H    0.214947
    23  H    0.198344
    24  H    0.171047
    25  H    0.163173
    26  H    0.181267
    27  H    0.261146
    28  H    0.160874
    29  H    0.199182
    30  H    0.166834
    31  H    0.204289
 Sum of Mulliken charges =   0.00000

 Dipole moment (field-independent basis, Debye):
    X=              1.9599    Y=             -1.5313    Z=              1.6925  Tot=              3.0084
 Quadrupole moment (field-independent basis, Debye-Ang):
   XX=            -76.1248   YY=            -78.8786   ZZ=            -79.8837
   XY=              6.1644   XZ=              8.3742   YZ=             -3.3478

  Exact polarizability: 183.178   1.988 173.593   2.202  -0.833 171.007
 Approx polarizability: 145.162   1.430 144.044   1.522  -0.048 143.844

 ******    1 imaginary frequencies (negative Signs) ******

                      1                      2                      3
                      A                      A                      A
 Frequencies --    -25.3781                77.6800                83.0408
 Red. masses --      3.1649                 3.5568                 4.6574
 Frc consts  --      0.0012                 0.0126                 0.0189
 IR Inten    --      0.8629                 3.7884                 1.6270

                      4                      5                      6
                      A                      A                      A
 Frequencies --    159.1021               194.6932               245.7025
 Red. masses --      3.6002                 3.3201                 2.3494
 Frc consts  --      0.0537                 0.0741                 0.0836
 IR Inten    --      7.1986                 4.2861                 6.9344

                      7                      8                      9
                      A                      A                      A
 Frequencies --    256.1599               280.1552               331.2984
 Red. masses --      1.8160                 3.6454                 2.3618
 Frc consts  --      0.0702                 0.1686                 0.1527
 IR Inten    --      2.6971                 2.1556                 8.4699

                     10                     11                     12
                      A                      A                      A
 Frequencies --    364.4730               393.0524               429.9386
 Red. masses --      2.2351                 3.0060                 3.0795
 Frc consts  --      0.1749                 0.2736                 0.3354
 IR Inten    --     15.5091                 8.7401                 1.8388

                     13                     14                     15
                      A                      A                      A
 Frequencies --    448.9995               469.7776               492.1708
 Red. masses --      2.6659                 3.8641                 3.0571
 Frc consts  --      0.3167                 0.5024                 0.4363
 IR Inten    --      2.0463                 0.8634                 0.8550

                     16                     17                     18
                      A                      A                      A
 Frequencies --    539.5595               558.4224               597.4039
 Red. masses --      2.3331                 2.6429                 2.0958
 Frc consts  --      0.4002                 0.4856                 0.4407
 IR Inten    --     12.5518                 3.5386                 2.8657

                     19                     20                     21
                      A                      A                      A
 Frequencies --    673.0548               832.2691               834.6592
 Red. masses --      3.3858                 1.7745                 1.5792
 Frc consts  --      0.9037                 0.7242                 0.6482
 IR Inten    --     31.2117                13.0806                 1.1780

                     22                     23                     24
                      A                      A                      A
 Frequencies --    841.7751               863.9925               877.7055
 Red. masses --      2.3338                 1.9801                 2.2375
 Frc consts  --      0.9743                 0.8709                 1.0156
 IR Inten    --      3.8800                19.1328                45.6930

                     25                     26                     27
                      A                      A                      A
 Frequencies --    894.6928               933.9189               936.3834
 Red. masses --      2.1044                 2.4044                 1.8137
 Frc consts  --      0.9925                 1.2356                 0.9370
 IR Inten    --     15.1107                51.9888                 0.2281

                     28                     29                     30
                      A                      A                      A
 Frequencies --    958.4695               986.0998               997.0876
 Red. masses --      2.2237                 1.7561                 1.4057
 Frc consts  --      1.2036                 1.0061                 0.8234
 IR Inten    --      5.4997                42.3808                13.3044

                     31                     32                     33
                      A                      A                      A
 Frequencies --   1014.1127              1029.5065              1057.4066
 Red. masses --      2.0704                 2.1204                 1.5261
 Frc consts  --      1.2545                 1.3241                 1.0053
 IR Inten    --      9.2005                38.2221                85.7762

                     34                     35                     36
                      A                      A                      A
 Frequencies --   1089.1226              1096.8991              1119.4644
 Red. masses --      2.9639                 2.5316                 3.9639
 Frc consts  --      2.0714                 1.7946                 2.9268
 IR Inten    --     51.4233                59.0783               237.3815

                     37                     38                     39
                      A                      A                      A
 Frequencies --   1127.2783              1158.0209              1172.0676
 Red. masses --      3.2570                 2.3126                 2.3313
 Frc consts  --      2.4385                 1.8272                 1.8869
 IR Inten    --     87.9495                 5.1428                33.7683

                     40                     41                     42
                      A                      A                      A
 Frequencies --   1184.8882              1195.1160              1204.1948
 Red. masses --      2.6873                 1.4247                 1.5210
 Frc consts  --      2.2229                 1.1989                 1.2995
 IR Inten    --    118.3347                41.6577                19.0167

                     43                     44                     45
                      A                      A                      A
 Frequencies --   1215.1591              1238.8372              1266.9461
 Red. masses --      3.2162                 1.6780                 1.3471
 Frc consts  --      2.7981                 1.5173                 1.2740
 IR Inten    --    336.7970                35.6199                27.6034

                     46                     47                     48
                      A                      A                      A
 Frequencies --   1278.5715              1281.6646              1314.8848
 Red. masses --      1.2387                 1.3288                 1.1955
 Frc consts  --      1.1931                 1.2860                 1.2177
 IR Inten    --      0.9797                33.3183                28.3972

                     49                     50                     51
                      A                      A                      A
 Frequencies --   1328.0767              1333.9974              1351.4570
 Red. masses --      1.4200                 1.2766                 1.3296
 Frc consts  --      1.4757                 1.3384                 1.4308
 IR Inten    --     53.0115                 4.6879                 7.2201

                     52                     53                     54
                      A                      A                      A
 Frequencies --   1367.0638              1371.5822              1384.1063
 Red. masses --      1.4313                 1.3278                 1.4881
 Frc consts  --      1.5760                 1.4718                 1.6796
 IR Inten    --      1.0701                41.6539                 3.5964

                     55                     56                     57
                      A                      A                      A
 Frequencies --   1387.9547              1396.7458              1402.3620
 Red. masses --      1.3192                 1.2227                 1.4699
 Frc consts  --      1.4973                 1.4055                 1.7031
 IR Inten    --      1.0221                14.0065                10.9631

                     58                     59                     60
                      A                      A                      A
 Frequencies --   1420.7633              1425.3442              1436.1035
 Red. masses --      1.3012                 1.3430                 1.3123
 Frc consts  --      1.5475                 1.6075                 1.5946
 IR Inten    --      2.1763                34.2711                34.8603

                     61                     62                     63
                      A                      A                      A
 Frequencies --   1444.2976              1469.1129              1470.7010
 Red. masses --      1.4601                 1.1034                 1.1089
 Frc consts  --      1.7946                 1.4031                 1.4132
 IR Inten    --     40.4308                 4.1726                 6.5713

                     64                     65                     66
                      A                      A                      A
 Frequencies --   1473.8552              1483.1215              1490.0098
 Red. masses --      1.1096                 1.1294                 1.1231
 Frc consts  --      1.4201                 1.4637                 1.4691
 IR Inten    --      7.9883                11.3963                25.5243

                     67                     68                     69
                      A                      A                      A
 Frequencies --   1499.8976              1505.7851              1508.6191
 Red. masses --      1.0838                 1.0958                 1.1006
 Frc consts  --      1.4365                 1.4638                 1.4758
 IR Inten    --      3.0761                 5.8303                 7.6894

                     70                     71                     72
                      A                      A                      A
 Frequencies --   3034.4692              3035.0864              3036.6892
 Red. masses --      1.0700                 1.0704                 1.0700
 Frc consts  --      5.8052                 5.8093                 5.8137
 IR Inten    --     76.1829                49.6308                78.1616

                     73                     74                     75
                      A                      A                      A
 Frequencies --   3045.8993              3060.5948              3069.1364
 Red. masses --      1.0814                 1.0686                 1.0650
 Frc consts  --      5.9113                 5.8975                 5.9104
 IR Inten    --     59.0600                24.8782                45.0112

                     76                     77                     78
                      A                      A                      A
 Frequencies --   3069.7696              3072.4928              3075.5346
 Red. masses --      1.0710                 1.0647                 1.0674
 Frc consts  --      5.9462                 5.9217                 5.9488
 IR Inten    --      8.6199                34.1451                74.4490

                     79                     80                     81
                      A                      A                      A
 Frequencies --   3089.3017              3118.3039              3121.5009
 Red. masses --      1.0614                 1.0966                 1.1019
 Frc consts  --      5.9682                 6.2827                 6.3259
 IR Inten    --     21.5992                40.7758                62.3072

                     82                     83                     84
                      A                      A                      A
 Frequencies --   3124.7856              3129.4181              3140.3515
 Red. masses --      1.1046                 1.1035                 1.0963
 Frc consts  --      6.3546                 6.3671                 6.3701
 IR Inten    --     47.1705                48.9453                17.9406

                     85                     86                     87
                      A                      A                      A
 Frequencies --   3140.6781              3142.7556              3147.0073
 Red. masses --      1.0959                 1.0965                 1.1024
 Frc consts  --      6.3688                 6.3811                 6.4325
 IR Inten    --     75.8835                19.4085                42.5732

 - Thermochemistry -
 -------------------
 Temperature   298.150 Kelvin.  Pressure   1.00000 Atm.
 Atom     1 has atomic number  6 and mass  12.00000

 Molecular mass:   186.12559 amu.
 Principal axes and moments of inertia in atomic units:
                           1         2         3
     Eigenvalues --   951.016794480.220674705.10388
           X            0.99996   0.00447   0.00773
           Y           -0.00402   0.99840  -0.05639
           Z           -0.00797   0.05635   0.99838
 This molecule is an asymmetric top.
 Rotational symmetry number  1.
 Warning -- assumption of classical behavior for rotation
           may cause significant error
 Rotational temperatures (Kelvin)      0.09108     0.01933     0.01841
 Rotational constants (GHZ):           1.89770     0.40282     0.38357
    1 imaginary frequencies ignored.
 Zero-point vibrational energy     736903.3 (Joules/Mol)
                                  176.12412 (Kcal/Mol)
 Warning -- explicit consideration of  17 degrees of freedom as
           vibrations may cause significant error
 Vibrational temperatures:    111.76   119.48   228.91   280.12   353.51
          (Kelvin)            368.56   403.08   476.66   524.40   565.51
                              618.59   646.01   675.91   708.12   776.31
                              803.45   859.53   968.38  1197.45  1200.89
                             1211.13  1243.09  1262.82  1287.26  1343.70
                             1347.25  1379.02  1418.78  1434.59  1459.08
                             1481.23  1521.37  1567.00  1578.19  1610.66
                             1621.90  1666.13  1686.34  1704.79  1719.51
                             1732.57  1748.34  1782.41  1822.85  1839.58
                             1844.03  1891.83  1910.81  1919.32  1944.45
                             1966.90  1973.40  1991.42  1996.96  2009.61
                             2017.69  2044.16  2050.75  2066.23  2078.02
                             2113.73  2116.01  2120.55  2133.88  2143.79
                             2158.02  2166.49  2170.57  4365.92  4366.81
                             4369.12  4382.37  4403.51  4415.80  4416.71
                             4420.63  4425.01  4444.82  4486.54  4491.14
                             4495.87  4502.53  4518.27  4518.74  4521.72
                             4527.84

 Zero-point correction=                           0.280672 (Hartree/Particle)
 Thermal correction to Energy=                    0.291497
 Thermal correction to Enthalpy=                  0.292442
 Thermal correction to Gibbs Free Energy=         0.244202
 Sum of electronic and zero-point Energies=           -617.224953
 Sum of electronic and thermal Energies=              -617.214128
 Sum of electronic and thermal Enthalpies=            -617.213183
 Sum of electronic and thermal Free Energies=         -617.261423

                     E (Thermal)             CV                S
                      KCal/Mol        Cal/Mol-Kelvin    Cal/Mol-Kelvin
 Total                  182.917             44.802            101.530
 Electronic               0.000              0.000              0.000
 Translational            0.889              2.981             41.570
 Rotational               0.889              2.981             31.372
 Vibrational            181.140             38.840             28.587
 Vibration     1          0.599              1.964              3.949
 Vibration     2          0.600              1.961              3.818
 Vibration     3          0.621              1.892              2.560
 Vibration     4          0.635              1.847              2.183
 Vibration     5          0.660              1.770              1.761
 Vibration     6          0.666              1.752              1.688
 Vibration     7          0.680              1.710              1.533
 Vibration     8          0.714              1.613              1.254
 Vibration     9          0.738              1.545              1.103
 Vibration    10          0.760              1.485              0.989
 Vibration    11          0.791              1.405              0.859
 Vibration    12          0.808              1.363              0.799
 Vibration    13          0.827              1.317              0.738
 Vibration    14          0.848              1.267              0.678
 Vibration    15          0.895              1.163              0.566
 Vibration    16          0.914              1.121              0.527
 Vibration    17          0.955              1.037              0.454

 Optimization completed.
    -- Stationary point found.
 Normal termination of Gaussian 16 at Sat Mar  9 16:00:24 2019.
