 Gaussian 16, Revision B.01,
 Gaussian 16:  ES64L-G16RevB.01 20-Dec-2017

 ----------------------------------------------------------------------
 #M062X/6-311++G(2d,2p) opt=ModRedundant freq=noraman SCRF=(SMD,solvent
 =water)
 ----------------------------------------------------------------------

 --------------------------------
 4c1_b1_e3_4c1_PSI.inp_extract_20
 --------------------------------
 Symbolic Z-matrix:
 Charge =  0 Multiplicity = 1

 SCF Done:  E(RM062X) =  -617.507458360     A.U. after   12 cycles
 SCF Done:  E(RM062X) =  -617.508991496     A.U. after   10 cycles
 SCF Done:  E(RM062X) =  -617.509105183     A.U. after    9 cycles
 SCF Done:  E(RM062X) =  -617.509128274     A.U. after    9 cycles
 SCF Done:  E(RM062X) =  -617.509134271     A.U. after    8 cycles
 SCF Done:  E(RM062X) =  -617.509137038     A.U. after    9 cycles
 SCF Done:  E(RM062X) =  -617.509137606     A.U. after    7 cycles
 SCF Done:  E(RM062X) =  -617.509137717     A.U. after    6 cycles
 Optimization completed.
    -- Stationary point found.
 Normal termination of Gaussian 16 at Sat Mar  9 16:33:36 2019.

 ----------------------------------------------------------------------
 #N Geom=AllCheck Guess=TCheck SCRF=Check GenChk RM062X/6-311++G(2d,2p)
  Freq
 ----------------------------------------------------------------------

 Structure from the checkpoint file:  "4c1_b1_e3_4c1_PSI.inp_extract_20.chk"
 --------------------------------
 4c1_b1_e3_4c1_PSI.inp_extract_20
 --------------------------------
 Charge =  0 Multiplicity = 1

                         Standard orientation:
 ---------------------------------------------------------------------
 Center     Atomic      Atomic             Coordinates (Angstroms)
 Number     Number       Type             X           Y           Z
 ---------------------------------------------------------------------
      1          6           0       -2.287286   -1.321815   -0.255432
      2          6           0       -2.944102    1.396546    0.307943
      3          6           0        2.310812   -1.367915   -0.098235
      4          6           0       -1.189060   -0.361859    0.166255
      5          6           0       -1.559981    1.061048   -0.228218
      6          8           0        1.538969    0.893739   -0.448921
      7          6           0        3.638028   -0.840916    0.446659
      8          8           0       -3.923887    0.472982   -0.153996
      9          6           0        3.920920    0.549148   -0.117193
     10          6           0        1.209219   -0.356922    0.144769
     11          6           0        2.724547    1.452290    0.121572
     12          6           0       -3.627832   -0.848575    0.284348
     13          8           0        0.026125   -0.810613   -0.443128
     14          1           0       -2.329041   -1.358454   -1.346492
     15          1           0       -2.075079   -2.325133    0.114578
     16          1           0       -3.262147    2.381211   -0.027043
     17          1           0       -2.936298    1.389285    1.403942
     18          1           0        2.379311   -1.534381   -1.176019
     19          1           0        2.034270   -2.308806    0.376939
     20          1           0       -1.068152   -0.413882    1.253626
     21          1           0       -0.839699    1.774636    0.169972
     22          1           0       -1.557923    1.140840   -1.317786
     23          1           0        4.444996   -1.531347    0.204754
     24          1           0        3.579101   -0.780673    1.536726
     25          1           0        4.107435    0.485619   -1.191636
     26          1           0        4.802402    0.989894    0.349403
     27          1           0        1.058303   -0.197137    1.220805
     28          1           0        2.568750    1.599484    1.196459
     29          1           0        2.853296    2.426657   -0.344366
     30          1           0       -3.624389   -0.869298    1.379978
     31          1           0       -4.436379   -1.483558   -0.070301
 ---------------------------------------------------------------------

 SCF Done:  E(RM062X) =  -617.509137717     A.U. after    1 cycles

 The electronic state is 1-A.
 Alpha  occ. eigenvalues --  -19.63582 -19.62904 -19.62786 -10.63217 -10.58534
 Alpha  occ. eigenvalues --  -10.57632 -10.57585 -10.57441 -10.52510 -10.52502
 Alpha  occ. eigenvalues --  -10.52383 -10.52306 -10.52205  -1.19794  -1.16180
 Alpha  occ. eigenvalues --   -1.13626  -0.90721  -0.89399  -0.86097  -0.84498
 Alpha  occ. eigenvalues --   -0.74578  -0.73171  -0.72101  -0.69902  -0.66135
 Alpha  occ. eigenvalues --   -0.64249  -0.59761  -0.57858  -0.56198  -0.54324
 Alpha  occ. eigenvalues --   -0.54275  -0.52743  -0.51910  -0.51117  -0.49653
 Alpha  occ. eigenvalues --   -0.49165  -0.46351  -0.45696  -0.45094  -0.44198
 Alpha  occ. eigenvalues --   -0.42259  -0.41271  -0.40650  -0.39808  -0.39123
 Alpha  occ. eigenvalues --   -0.38514  -0.37160  -0.37066  -0.34612  -0.33483
 Alpha  occ. eigenvalues --   -0.31951
 Alpha virt. eigenvalues --    0.00522   0.01241   0.01362   0.01481   0.02687
 Alpha virt. eigenvalues --    0.02849   0.02981   0.03998   0.04121   0.04681
 Alpha virt. eigenvalues --    0.05089   0.05422   0.05762   0.06292   0.07222

 Mulliken charges:
               1
     1  C   -0.182375
     2  C   -0.395764
     3  C   -0.281256
     4  C   -0.152437
     5  C   -0.205049
     6  O   -0.412832
     7  C   -0.415806
     8  O   -0.367513
     9  C   -0.373059
    10  C    0.111398
    11  C   -0.126608
    12  C   -0.305765
    13  O   -0.387255
    14  H    0.196641
    15  H    0.175011
    16  H    0.208347
    17  H    0.173182
    18  H    0.201373
    19  H    0.170776
    20  H    0.269468
    21  H    0.177388
    22  H    0.226355
    23  H    0.200585
    24  H    0.174129
    25  H    0.162629
    26  H    0.183707
    27  H    0.226556
    28  H    0.158263
    29  H    0.203416
    30  H    0.158291
    31  H    0.228202
 Sum of Mulliken charges =  -0.00000

 Dipole moment (field-independent basis, Debye):
    X=              3.0764    Y=             -0.3766    Z=              4.2400  Tot=              5.2520
 Quadrupole moment (field-independent basis, Debye-Ang):
   XX=            -80.5032   YY=            -76.3406   ZZ=            -80.2012
   XY=              4.6609   XZ=             -1.5935   YZ=              0.3573

  Exact polarizability: 184.280   3.907 176.435  -0.037   0.711 167.153
 Approx polarizability: 145.969   2.674 144.305   1.004   0.305 142.311

 ******    1 imaginary frequencies (negative Signs) ******

                      1                      2                      3
                      A                      A                      A
 Frequencies --    -20.3871                60.6621                76.5811
 Red. masses --      3.0825                 4.5346                 3.8594
 Frc consts  --      0.0008                 0.0098                 0.0133
 IR Inten    --      0.5029                 0.8228                 0.6683

                      4                      5                      6
                      A                      A                      A
 Frequencies --    143.4198               228.5720               241.9781
 Red. masses --      3.3742                 2.9816                 2.0473
 Frc consts  --      0.0409                 0.0918                 0.0706
 IR Inten    --      6.9018                 1.6046                 4.5793

                      7                      8                      9
                      A                      A                      A
 Frequencies --    252.9693               263.7193               284.9264
 Red. masses --      2.2216                 4.1692                 3.1598
 Frc consts  --      0.0838                 0.1708                 0.1511
 IR Inten    --     11.8853                 3.0935                 4.6685

                     10                     11                     12
                      A                      A                      A
 Frequencies --    357.8009               393.6475               436.8022
 Red. masses --      1.9819                 2.2630                 4.2242
 Frc consts  --      0.1495                 0.2066                 0.4749
 IR Inten    --      1.9830                11.8548                 4.6749

                     13                     14                     15
                      A                      A                      A
 Frequencies --    451.2916               474.5341               509.9965
 Red. masses --      2.6011                 3.0227                 2.5297
 Frc consts  --      0.3121                 0.4010                 0.3877
 IR Inten    --      2.6690                 0.3143                 3.2093

                     16                     17                     18
                      A                      A                      A
 Frequencies --    523.8856               550.8641               605.8379
 Red. masses --      2.8581                 2.8793                 2.3144
 Frc consts  --      0.4622                 0.5148                 0.5005
 IR Inten    --      4.4177                 0.3791                15.1466

                     19                     20                     21
                      A                      A                      A
 Frequencies --    656.7059               830.8305               832.5164
 Red. masses --      2.5908                 1.5029                 1.8364
 Frc consts  --      0.6583                 0.6113                 0.7499
 IR Inten    --     26.0139                 1.2885                11.3206

                     22                     23                     24
                      A                      A                      A
 Frequencies --    844.2630               864.4187               883.9437
 Red. masses --      2.4182                 2.0982                 1.8595
 Frc consts  --      1.0155                 0.9237                 0.8561
 IR Inten    --     15.4265                12.7044                 9.1778

                     25                     26                     27
                      A                      A                      A
 Frequencies --    899.4490               933.0815               936.0548
 Red. masses --      2.4408                 2.5069                 1.7605
 Frc consts  --      1.1634                 1.2860                 0.9088
 IR Inten    --     37.0289                51.7458                 4.3735

                     28                     29                     30
                      A                      A                      A
 Frequencies --    960.7533               992.8604              1002.9383
 Red. masses --      2.1428                 1.7273                 1.4326
 Frc consts  --      1.1654                 1.0032                 0.8490
 IR Inten    --     15.2094                43.8551                20.2222

                     31                     32                     33
                      A                      A                      A
 Frequencies --   1016.9415              1034.9730              1055.1427
 Red. masses --      2.0641                 2.1444                 1.5880
 Frc consts  --      1.2577                 1.3534                 1.0417
 IR Inten    --     10.8936                43.5969               119.5679

                     34                     35                     36
                      A                      A                      A
 Frequencies --   1088.0933              1101.9954              1115.0274
 Red. masses --      2.6103                 2.9590                 4.3008
 Frc consts  --      1.8209                 2.1171                 3.1504
 IR Inten    --     65.0898                25.8155               301.9838

                     37                     38                     39
                      A                      A                      A
 Frequencies --   1133.2745              1156.3617              1173.8844
 Red. masses --      3.1277                 2.3136                 2.6606
 Frc consts  --      2.3667                 1.8227                 2.1602
 IR Inten    --     47.9619                 5.0071                81.8553

                     40                     41                     42
                      A                      A                      A
 Frequencies --   1184.2996              1194.3597              1207.2995
 Red. masses --      1.8779                 1.5165                 1.6787
 Frc consts  --      1.5518                 1.2746                 1.4416
 IR Inten    --     63.1712                48.4760                96.1834

                     43                     44                     45
                      A                      A                      A
 Frequencies --   1222.3384              1238.2165              1271.7603
 Red. masses --      3.2804                 1.6515                 1.3159
 Frc consts  --      2.8878                 1.4918                 1.2540
 IR Inten    --    284.7174                38.9566                17.2471

                     46                     47                     48
                      A                      A                      A
 Frequencies --   1278.0980              1284.2402              1314.2476
 Red. masses --      1.2493                 1.3126                 1.1972
 Frc consts  --      1.2023                 1.2755                 1.2183
 IR Inten    --     14.4319                 6.5740                30.7977

                     49                     50                     51
                      A                      A                      A
 Frequencies --   1325.0881              1339.2428              1348.1488
 Red. masses --      1.3728                 1.3054                 1.2829
 Frc consts  --      1.4202                 1.3795                 1.3738
 IR Inten    --      7.4582                 7.2951                 2.7649

                     52                     53                     54
                      A                      A                      A
 Frequencies --   1364.3200              1368.1454              1384.6065
 Red. masses --      1.2183                 1.4248                 1.4962
 Frc consts  --      1.3361                 1.5713                 1.6901
 IR Inten    --     15.8826                 4.6475                 5.8758

                     55                     56                     57
                      A                      A                      A
 Frequencies --   1389.7961              1392.0657              1405.5260
 Red. masses --      1.3389                 1.2939                 1.4826
 Frc consts  --      1.5237                 1.4773                 1.7256
 IR Inten    --      9.3759                30.6652                14.1485

                     58                     59                     60
                      A                      A                      A
 Frequencies --   1407.4217              1420.5090              1431.2271
 Red. masses --      1.4742                 1.3505                 1.3499
 Frc consts  --      1.7205                 1.6056                 1.6292
 IR Inten    --    107.3242                19.6966                 2.3831

                     61                     62                     63
                      A                      A                      A
 Frequencies --   1459.1559              1467.7650              1472.2149
 Red. masses --      1.2995                 1.1001                 1.1079
 Frc consts  --      1.6301                 1.3964                 1.4148
 IR Inten    --     10.4761                 5.9681                 5.9006

                     64                     65                     66
                      A                      A                      A
 Frequencies --   1474.2903              1482.8375              1489.9960
 Red. masses --      1.1331                 1.1434                 1.1425
 Frc consts  --      1.4510                 1.4813                 1.4945
 IR Inten    --      6.3393                 9.7794                28.1706

                     67                     68                     69
                      A                      A                      A
 Frequencies --   1500.2977              1503.4795              1508.4374
 Red. masses --      1.0830                 1.0982                 1.1024
 Frc consts  --      1.4363                 1.4626                 1.4779
 IR Inten    --      3.4698                 4.6176                 7.7202

                     70                     71                     72
                      A                      A                      A
 Frequencies --   3018.6615              3033.4010              3035.5259
 Red. masses --      1.0833                 1.0704                 1.0702
 Frc consts  --      5.8162                 5.8033                 5.8101
 IR Inten    --     58.3672                68.0227                55.3561

                     73                     74                     75
                      A                      A                      A
 Frequencies --   3037.3137              3043.6306              3060.1679
 Red. masses --      1.0701                 1.0829                 1.0685
 Frc consts  --      5.8165                 5.9104                 5.8956
 IR Inten    --     76.9951                59.4435                26.1253

                     76                     77                     78
                      A                      A                      A
 Frequencies --   3069.1457              3071.1678              3071.7937
 Red. masses --      1.0614                 1.0617                 1.0616
 Frc consts  --      5.8905                 5.8999                 5.9019
 IR Inten    --     38.5628                14.8391                48.0347

                     79                     80                     81
                      A                      A                      A
 Frequencies --   3075.1662              3117.2590              3120.9305
 Red. masses --      1.0634                 1.0980                 1.1009
 Frc consts  --      5.9249                 6.2863                 6.3180
 IR Inten    --     59.6330                42.0069                61.4653

                     82                     83                     84
                      A                      A                      A
 Frequencies --   3126.3508              3128.5858              3136.6155
 Red. masses --      1.1027                 1.1034                 1.1003
 Frc consts  --      6.3499                 6.3633                 6.3781
 IR Inten    --     45.5549                52.4881                39.1553

                     85                     86                     87
                      A                      A                      A
 Frequencies --   3140.5824              3140.8283              3142.4863
 Red. masses --      1.0955                 1.0959                 1.0962
 Frc consts  --      6.3665                 6.3698                 6.3780
 IR Inten    --     34.1494                40.5517                35.5100

 - Thermochemistry -
 -------------------
 Temperature   298.150 Kelvin.  Pressure   1.00000 Atm.
 Atom     1 has atomic number  6 and mass  12.00000

 Molecular mass:   186.12559 amu.
 Principal axes and moments of inertia in atomic units:
                           1         2         3
     Eigenvalues --   824.082394877.175205477.62720
           X            1.00000   0.00232  -0.00045
           Y           -0.00232   0.99999   0.00380
           Z            0.00046  -0.00380   0.99999
 This molecule is an asymmetric top.
 Rotational symmetry number  1.
 Warning -- assumption of classical behavior for rotation
           may cause significant error
 Rotational temperatures (Kelvin)      0.10510     0.01776     0.01581
 Rotational constants (GHZ):           2.19000     0.37004     0.32947
    1 imaginary frequencies ignored.
 Zero-point vibrational energy     736122.3 (Joules/Mol)
                                  175.93746 (Kcal/Mol)
 Warning -- explicit consideration of  17 degrees of freedom as
           vibrations may cause significant error
 Vibrational temperatures:     87.28   110.18   206.35   328.86   348.15
          (Kelvin)            363.97   379.43   409.95   514.80   566.37
                              628.46   649.31   682.75   733.77   753.75
                              792.57   871.67   944.85  1195.38  1197.81
                             1214.71  1243.71  1271.80  1294.11  1342.50
                             1346.77  1382.31  1428.50  1443.00  1463.15
                             1489.10  1518.12  1565.52  1585.53  1604.28
                             1630.53  1663.75  1688.96  1703.94  1718.42
                             1737.03  1758.67  1781.52  1829.78  1838.90
                             1847.74  1890.91  1906.51  1926.87  1939.69
                             1962.95  1968.46  1992.14  1999.61  2002.87
                             2022.24  2024.97  2043.80  2059.22  2099.40
                             2111.79  2118.19  2121.17  2133.47  2143.77
                             2158.59  2163.17  2170.30  4343.18  4364.39
                             4367.44  4370.02  4379.11  4402.90  4415.82
                             4418.73  4419.63  4424.48  4485.04  4490.32
                             4498.12  4501.34  4512.89  4518.60  4518.95
                             4521.34

 Zero-point correction=                           0.280374 (Hartree/Particle)
 Thermal correction to Energy=                    0.291305
 Thermal correction to Enthalpy=                  0.292249
 Thermal correction to Gibbs Free Energy=         0.243520
 Sum of electronic and zero-point Energies=           -617.228764
 Sum of electronic and thermal Energies=              -617.217833
 Sum of electronic and thermal Enthalpies=            -617.216888
 Sum of electronic and thermal Free Energies=         -617.265618

                     E (Thermal)             CV                S
                      KCal/Mol        Cal/Mol-Kelvin    Cal/Mol-Kelvin
 Total                  182.797             44.877            102.559
 Electronic               0.000              0.000              0.000
 Translational            0.889              2.981             41.570
 Rotational               0.889              2.981             31.466
 Vibrational            181.019             38.916             29.524
 Vibration     1          0.597              1.973              4.436
 Vibration     2          0.599              1.965              3.977
 Vibration     3          0.616              1.910              2.758
 Vibration     4          0.651              1.797              1.890
 Vibration     5          0.658              1.776              1.788
 Vibration     6          0.664              1.758              1.710
 Vibration     7          0.670              1.739              1.637
 Vibration     8          0.683              1.702              1.504
 Vibration     9          0.733              1.559              1.132
 Vibration    10          0.761              1.484              0.986
 Vibration    11          0.797              1.390              0.837
 Vibration    12          0.810              1.358              0.792
 Vibration    13          0.831              1.307              0.725
 Vibration    14          0.865              1.228              0.634
 Vibration    15          0.879              1.197              0.601
 Vibration    16          0.906              1.138              0.542
 Vibration    17          0.964              1.019              0.440

 Optimization completed.
    -- Stationary point found.
 Normal termination of Gaussian 16 at Sat Mar  9 17:34:16 2019.
