 Gaussian 16, Revision B.01,
 Gaussian 16:  ES64L-G16RevB.01 20-Dec-2017

 ----------------------------------------------------------------------
 #M062X/6-311++G(2d,2p) opt=ModRedundant freq=noraman SCRF=(SMD,solvent
 =water)
 ----------------------------------------------------------------------

 --------------------------------
 4c1_b1_e3_4c1_PSI.inp_extract_10
 --------------------------------
 Symbolic Z-matrix:
 Charge =  0 Multiplicity = 1

 SCF Done:  E(RM062X) =  -617.505868807     A.U. after   12 cycles
 SCF Done:  E(RM062X) =  -617.507515263     A.U. after   10 cycles
 SCF Done:  E(RM062X) =  -617.507765684     A.U. after   10 cycles
 SCF Done:  E(RM062X) =  -617.507827909     A.U. after    9 cycles
 SCF Done:  E(RM062X) =  -617.507830108     A.U. after    8 cycles
 SCF Done:  E(RM062X) =  -617.507830272     A.U. after    7 cycles
 Optimization completed.
    -- Stationary point found.
 Normal termination of Gaussian 16 at Sat Mar  9 14:04:24 2019.

 ----------------------------------------------------------------------
 #N Geom=AllCheck Guess=TCheck SCRF=Check GenChk RM062X/6-311++G(2d,2p)
  Freq
 ----------------------------------------------------------------------

 Structure from the checkpoint file:  "4c1_b1_e3_4c1_PSI.inp_extract_10.chk"
 --------------------------------
 4c1_b1_e3_4c1_PSI.inp_extract_10
 --------------------------------
 Charge =  0 Multiplicity = 1

                         Standard orientation:
 ---------------------------------------------------------------------
 Center     Atomic      Atomic             Coordinates (Angstroms)
 Number     Number       Type             X           Y           Z
 ---------------------------------------------------------------------
      1          6           0        1.505220    1.098407    0.364797
      2          6           0        3.312375   -0.942131   -0.515786
      3          6           0       -2.170523   -1.332013    0.244080
      4          6           0        1.292615   -0.343692    0.804317
      5          6           0        1.858771   -1.297654   -0.238623
      6          8           0       -1.520631    0.974906    0.548089
      7          6           0       -3.302232   -0.900679   -0.688574
      8          8           0        3.442418    0.410535   -0.940684
      9          6           0       -3.723486    0.532645   -0.373972
     10          6           0       -1.045343   -0.319282    0.197877
     11          6           0       -2.505560    1.439147   -0.377347
     12          6           0        2.982652    1.310050    0.062366
     13          8           0       -0.066548   -0.667515    1.133954
     14          1           0        0.926151    1.312812   -0.535541
     15          1           0        1.190632    1.789126    1.147363
     16          1           0        3.721307   -1.559679   -1.312142
     17          1           0        3.916036   -1.092534    0.386365
     18          1           0       -2.525614   -1.392502    1.275732
     19          1           0       -1.774392   -2.307243   -0.039313
     20          1           0        1.830382   -0.499178    1.741675
     21          1           0        1.795995   -2.325590    0.120088
     22          1           0        1.289276   -1.221575   -1.167166
     23          1           0       -4.146051   -1.583541   -0.598624
     24          1           0       -2.952427   -0.952546   -1.723134
     25          1           0       -4.192881    0.575873    0.611460
     26          1           0       -4.445748    0.898439   -1.104350
     27          1           0       -0.624046   -0.267375   -0.812923
     28          1           0       -2.063056    1.478151   -1.379623
     29          1           0       -2.754479    2.452699   -0.071103
     30          1           0        3.579182    1.168144    0.970554
     31          1           0        3.160880    2.314340   -0.314987
 ---------------------------------------------------------------------

 SCF Done:  E(RM062X) =  -617.507830272     A.U. after    1 cycles

 The electronic state is 1-A.
 Alpha  occ. eigenvalues --  -19.63474 -19.62953 -19.62792 -10.63123 -10.58614
 Alpha  occ. eigenvalues --  -10.57651 -10.57647 -10.57435 -10.52518 -10.52495
 Alpha  occ. eigenvalues --  -10.52441 -10.52376 -10.52208  -1.19694  -1.16209
 Alpha  occ. eigenvalues --   -1.13507  -0.90483  -0.89373  -0.86131  -0.84743
 Alpha  occ. eigenvalues --   -0.74831  -0.73167  -0.72137  -0.70185  -0.65771
 Alpha  occ. eigenvalues --   -0.64490  -0.59480  -0.57329  -0.56104  -0.54409
 Alpha  occ. eigenvalues --   -0.53931  -0.52653  -0.52186  -0.50754  -0.50364
 Alpha  occ. eigenvalues --   -0.49467  -0.46588  -0.45549  -0.44928  -0.44116
 Alpha  occ. eigenvalues --   -0.41966  -0.41516  -0.41099  -0.40296  -0.39332
 Alpha  occ. eigenvalues --   -0.38626  -0.37194  -0.36366  -0.34173  -0.33263
 Alpha  occ. eigenvalues --   -0.32218
 Alpha virt. eigenvalues --    0.00457   0.01275   0.01382   0.01479   0.02730
 Alpha virt. eigenvalues --    0.02896   0.03027   0.04010   0.04069   0.04969
 Alpha virt. eigenvalues --    0.05021   0.05449   0.05936   0.06131   0.07443

 Mulliken charges:
               1
     1  C   -0.126384
     2  C   -0.331419
     3  C   -0.298626
     4  C   -0.384143
     5  C   -0.113007
     6  O   -0.407509
     7  C   -0.384730
     8  O   -0.365179
     9  C   -0.367014
    10  C    0.096623
    11  C   -0.103847
    12  C   -0.372341
    13  O   -0.385421
    14  H    0.208151
    15  H    0.208885
    16  H    0.203968
    17  H    0.171716
    18  H    0.202077
    19  H    0.161822
    20  H    0.283564
    21  H    0.184685
    22  H    0.177047
    23  H    0.200128
    24  H    0.175142
    25  H    0.163604
    26  H    0.181262
    27  H    0.292507
    28  H    0.145867
    29  H    0.206430
    30  H    0.171143
    31  H    0.204998
 Sum of Mulliken charges =  -0.00000

 Dipole moment (field-independent basis, Debye):
    X=             -1.1901    Y=             -0.8917    Z=             -1.6838  Tot=              2.2465
 Quadrupole moment (field-independent basis, Debye-Ang):
   XX=            -75.8598   YY=            -76.1770   ZZ=            -84.6451
   XY=             -3.2145   XZ=             11.3894   YZ=              1.4496

  Exact polarizability: 183.879  -2.859 176.360   2.096  -0.059 167.565
 Approx polarizability: 145.658  -2.224 144.304   1.171  -0.387 142.965

                      1                      2                      3
                      A                      A                      A
 Frequencies --     54.3649                69.5363                74.7186
 Red. masses --      3.8030                 3.6532                 3.3222
 Frc consts  --      0.0066                 0.0104                 0.0109
 IR Inten    --      2.3767                 1.4705                 3.9642

                      4                      5                      6
                      A                      A                      A
 Frequencies --    147.4950               220.3187               243.1641
 Red. masses --      3.4558                 3.3777                 1.8568
 Frc consts  --      0.0443                 0.0966                 0.0647
 IR Inten    --      4.8074                 4.4452                 2.1494

                      7                      8                      9
                      A                      A                      A
 Frequencies --    248.9333               286.7909               324.5003
 Red. masses --      2.2779                 3.2904                 2.8592
 Frc consts  --      0.0832                 0.1595                 0.1774
 IR Inten    --      5.9349                 3.9486                 8.4692

                     10                     11                     12
                      A                      A                      A
 Frequencies --    367.8428               397.0995               426.7064
 Red. masses --      2.1549                 3.0006                 3.0337
 Frc consts  --      0.1718                 0.2788                 0.3254
 IR Inten    --     14.7482                 5.5173                 2.2164

                     13                     14                     15
                      A                      A                      A
 Frequencies --    458.2246               467.1131               491.6175
 Red. masses --      2.9316                 3.7527                 2.8677
 Frc consts  --      0.3627                 0.4824                 0.4084
 IR Inten    --      3.0912                 1.2943                 3.0014

                     16                     17                     18
                      A                      A                      A
 Frequencies --    530.2362               557.0169               593.9978
 Red. masses --      2.3881                 2.5135                 2.1161
 Frc consts  --      0.3956                 0.4595                 0.4399
 IR Inten    --      4.0217                 4.3781                 6.9666

                     19                     20                     21
                      A                      A                      A
 Frequencies --    670.7397               829.3363               831.0219
 Red. masses --      3.2112                 1.4870                 1.8721
 Frc consts  --      0.8512                 0.6026                 0.7617
 IR Inten    --     31.3115                 2.8401                 8.3709

                     22                     23                     24
                      A                      A                      A
 Frequencies --    840.6948               864.2422               878.7054
 Red. masses --      2.3258                 2.0246                 2.1092
 Frc consts  --      0.9685                 0.8910                 0.9595
 IR Inten    --      9.1021                18.7927                42.7319

                     25                     26                     27
                      A                      A                      A
 Frequencies --    896.6471               930.5234               935.9363
 Red. masses --      2.1839                 2.4273                 1.8748
 Frc consts  --      1.0345                 1.2383                 0.9676
 IR Inten    --     12.6321                51.1258                 9.2410

                     28                     29                     30
                      A                      A                      A
 Frequencies --    958.6402               990.1047              1000.5286
 Red. masses --      2.1805                 1.7034                 1.4095
 Frc consts  --      1.1806                 0.9839                 0.8313
 IR Inten    --      5.4966                38.8010                20.4534

                     31                     32                     33
                      A                      A                      A
 Frequencies --   1015.1678              1033.4821              1054.6952
 Red. masses --      2.1126                 2.1165                 1.5532
 Frc consts  --      1.2828                 1.3319                 1.0180
 IR Inten    --     13.5850                39.2194               108.3960

                     34                     35                     36
                      A                      A                      A
 Frequencies --   1083.9198              1102.0051              1115.5822
 Red. masses --      2.9109                 2.5924                 4.2423
 Frc consts  --      2.0150                 1.8549                 3.1106
 IR Inten    --     26.2028                63.0933               303.3234

                     37                     38                     39
                      A                      A                      A
 Frequencies --   1130.6338              1155.3599              1174.1095
 Red. masses --      3.3561                 2.2684                 2.2990
 Frc consts  --      2.5277                 1.7841                 1.8673
 IR Inten    --     37.3735                 2.5205                39.0319

                     40                     41                     42
                      A                      A                      A
 Frequencies --   1183.5726              1200.2077              1204.2512
 Red. masses --      2.7736                 1.4233                 1.5666
 Frc consts  --      2.2892                 1.2080                 1.3386
 IR Inten    --    129.4695                36.2130               105.3126

                     43                     44                     45
                      A                      A                      A
 Frequencies --   1208.7997              1237.8354              1269.4172
 Red. masses --      2.9664                 1.6774                 1.3113
 Frc consts  --      2.5538                 1.5143                 1.2450
 IR Inten    --    220.9000                29.2195                25.1706

                     46                     47                     48
                      A                      A                      A
 Frequencies --   1278.0520              1290.7032              1314.2468
 Red. masses --      1.2307                 1.3556                 1.1883
 Frc consts  --      1.1844                 1.3305                 1.2093
 IR Inten    --      2.0004                38.9230                32.0455

                     49                     50                     51
                      A                      A                      A
 Frequencies --   1329.4106              1337.3693              1349.8597
 Red. masses --      1.3845                 1.2761                 1.3236
 Frc consts  --      1.4416                 1.3447                 1.4210
 IR Inten    --     28.2846                 5.9041                 3.7436

                     52                     53                     54
                      A                      A                      A
 Frequencies --   1367.4224              1373.2006              1383.6592
 Red. masses --      1.4394                 1.2852                 1.4824
 Frc consts  --      1.5857                 1.4279                 1.6722
 IR Inten    --      0.2080                29.7920                 4.8088

                     55                     56                     57
                      A                      A                      A
 Frequencies --   1389.0118              1398.7836              1404.7057
 Red. masses --      1.3302                 1.2546                 1.4173
 Frc consts  --      1.5121                 1.4463                 1.6477
 IR Inten    --      5.8258                 5.5212                12.4272

                     58                     59                     60
                      A                      A                      A
 Frequencies --   1419.5766              1425.1345              1430.3460
 Red. masses --      1.3127                 1.3494                 1.3160
 Frc consts  --      1.5586                 1.6147                 1.5863
 IR Inten    --      5.5661                57.9691                 4.0471

                     61                     62                     63
                      A                      A                      A
 Frequencies --   1445.8197              1466.4222              1468.9746
 Red. masses --      1.4994                 1.1048                 1.1104
 Frc consts  --      1.8467                 1.3997                 1.4117
 IR Inten    --     63.0786                 6.6488                 4.1544

                     64                     65                     66
                      A                      A                      A
 Frequencies --   1472.9965              1481.4268              1489.8420
 Red. masses --      1.1232                 1.1348                 1.1229
 Frc consts  --      1.4359                 1.4674                 1.4685
 IR Inten    --     11.3576                 6.4915                24.0720

                     67                     68                     69
                      A                      A                      A
 Frequencies --   1498.7005              1504.8942              1507.1245
 Red. masses --      1.0826                 1.0965                 1.1022
 Frc consts  --      1.4326                 1.4631                 1.4751
 IR Inten    --      3.1245                 5.4435                10.2678

                     70                     71                     72
                      A                      A                      A
 Frequencies --   3031.7947              3035.9073              3038.2843
 Red. masses --      1.0705                 1.0700                 1.0698
 Frc consts  --      5.7976                 5.8103                 5.8186
 IR Inten    --     66.8449                59.9880                83.7360

                     73                     74                     75
                      A                      A                      A
 Frequencies --   3040.8082              3060.4351              3068.9593
 Red. masses --      1.0825                 1.0686                 1.0619
 Frc consts  --      5.8972                 5.8971                 5.8928
 IR Inten    --     51.0224                23.1702                33.9171

                     76                     77                     78
                      A                      A                      A
 Frequencies --   3070.6499              3073.2468              3077.3302
 Red. masses --      1.0614                 1.0635                 1.0659
 Frc consts  --      5.8962                 5.9182                 5.9475
 IR Inten    --     47.7187                20.9129                 7.3451

                     79                     80                     81
                      A                      A                      A
 Frequencies --   3085.3145              3118.3742              3121.3427
 Red. masses --      1.0767                 1.0969                 1.1012
 Frc consts  --      6.0385                 6.2843                 6.3211
 IR Inten    --     58.6602                41.3484                55.6944

                     82                     83                     84
                      A                      A                      A
 Frequencies --   3126.0353              3126.4255              3131.8960
 Red. masses --      1.1039                 1.1037                 1.1037
 Frc consts  --      6.3556                 6.3560                 6.3783
 IR Inten    --     63.3776                40.5367                55.6324

                     85                     86                     87
                      A                      A                      A
 Frequencies --   3139.7272              3140.3336              3143.0833
 Red. masses --      1.0955                 1.0960                 1.0967
 Frc consts  --      6.3628                 6.3683                 6.3833
 IR Inten    --     38.4253                38.0520                37.6251

 - Thermochemistry -
 -------------------
 Temperature   298.150 Kelvin.  Pressure   1.00000 Atm.
 Atom     1 has atomic number  6 and mass  12.00000

 Molecular mass:   186.12559 amu.
 Principal axes and moments of inertia in atomic units:
                           1         2         3
     Eigenvalues --   988.434104377.002044786.61200
           X            0.99993  -0.00119   0.01139
           Y            0.00100   0.99986   0.01667
           Z           -0.01141  -0.01666   0.99980
 This molecule is an asymmetric top.
 Rotational symmetry number  1.
 Warning -- assumption of classical behavior for rotation
           may cause significant error
 Rotational temperatures (Kelvin)      0.08763     0.01979     0.01810
 Rotational constants (GHZ):           1.82586     0.41232     0.37704
 Zero-point vibrational energy     736980.2 (Joules/Mol)
                                  176.14250 (Kcal/Mol)
 Warning -- explicit consideration of  18 degrees of freedom as
           vibrations may cause significant error
 Vibrational temperatures:     78.22   100.05   107.50   212.21   316.99
          (Kelvin)            349.86   358.16   412.63   466.88   529.24
                              571.34   613.94   659.28   672.07   707.33
                              762.89   801.42   854.63   965.04  1193.23
                             1195.66  1209.57  1243.45  1264.26  1290.08
                             1338.82  1346.60  1379.27  1424.54  1439.54
                             1460.60  1486.95  1517.47  1559.52  1585.54
                             1605.07  1626.73  1662.31  1689.28  1702.90
                             1726.83  1732.65  1739.19  1780.97  1826.41
                             1838.83  1857.03  1890.91  1912.73  1924.18
                             1942.15  1967.42  1975.73  1990.78  1998.48
                             2012.54  2021.06  2042.45  2050.45  2057.95
                             2080.21  2109.85  2113.53  2119.31  2131.44
                             2143.55  2156.30  2165.21  2168.42  4362.08
                             4367.99  4371.41  4375.04  4403.28  4415.55
                             4417.98  4421.72  4427.59  4439.08  4486.64
                             4490.92  4497.67  4498.23  4506.10  4517.37
                             4518.24  4522.20

 Zero-point correction=                           0.280701 (Hartree/Particle)
 Thermal correction to Energy=                    0.292379
 Thermal correction to Enthalpy=                  0.293324
 Thermal correction to Gibbs Free Energy=         0.242667
 Sum of electronic and zero-point Energies=           -617.227129
 Sum of electronic and thermal Energies=              -617.215451
 Sum of electronic and thermal Enthalpies=            -617.214507
 Sum of electronic and thermal Free Energies=         -617.265163

                     E (Thermal)             CV                S
                      KCal/Mol        Cal/Mol-Kelvin    Cal/Mol-Kelvin
 Total                  183.471             46.795            106.615
 Electronic               0.000              0.000              0.000
 Translational            0.889              2.981             41.570
 Rotational               0.889              2.981             31.405
 Vibrational            181.693             40.833             33.641
 Vibration     1          0.596              1.976              4.652
 Vibration     2          0.598              1.969              4.166
 Vibration     3          0.599              1.966              4.025
 Vibration     4          0.617              1.905              2.704
 Vibration     5          0.647              1.810              1.956
 Vibration     6          0.659              1.774              1.780
 Vibration     7          0.662              1.765              1.738
 Vibration     8          0.684              1.698              1.493
 Vibration     9          0.709              1.626              1.287
 Vibration    10          0.740              1.538              1.089
 Vibration    11          0.764              1.476              0.973
 Vibration    12          0.788              1.412              0.869
 Vibration    13          0.816              1.343              0.771
 Vibration    14          0.824              1.323              0.746
 Vibration    15          0.847              1.269              0.679
 Vibration    16          0.885              1.183              0.587
 Vibration    17          0.913              1.124              0.530
 Vibration    18          0.952              1.045              0.460

 Optimization completed.
    -- Stationary point found.
 Normal termination of Gaussian 16 at Sat Mar  9 15:07:33 2019.
