 Gaussian 16, Revision B.01,
 Gaussian 16:  ES64L-G16RevB.01 20-Dec-2017

 ----------------------------------------------------------------------
 #M062X/6-311++G(2d,2p) opt=ModRedundant freq=noraman SCRF=(SMD,solvent
 =water)
 ----------------------------------------------------------------------

 --------------------------------
 4c1_b1_e3_4c1_PSI.inp_extract_18
 --------------------------------
 Symbolic Z-matrix:
 Charge =  0 Multiplicity = 1

 SCF Done:  E(RM062X) =  -617.506968071     A.U. after   12 cycles
 SCF Done:  E(RM062X) =  -617.508616256     A.U. after   10 cycles
 SCF Done:  E(RM062X) =  -617.508782960     A.U. after   10 cycles
 SCF Done:  E(RM062X) =  -617.508852350     A.U. after    9 cycles
 SCF Done:  E(RM062X) =  -617.508855160     A.U. after    8 cycles
 SCF Done:  E(RM062X) =  -617.508855489     A.U. after    6 cycles
 Optimization completed.
    -- Stationary point found.
 Normal termination of Gaussian 16 at Sat Mar  9 16:09:26 2019.

 ----------------------------------------------------------------------
 #N Geom=AllCheck Guess=TCheck SCRF=Check GenChk RM062X/6-311++G(2d,2p)
  Freq
 ----------------------------------------------------------------------

 Structure from the checkpoint file:  "4c1_b1_e3_4c1_PSI.inp_extract_18.chk"
 --------------------------------
 4c1_b1_e3_4c1_PSI.inp_extract_18
 --------------------------------
 Charge =  0 Multiplicity = 1

                         Standard orientation:
 ---------------------------------------------------------------------
 Center     Atomic      Atomic             Coordinates (Angstroms)
 Number     Number       Type             X           Y           Z
 ---------------------------------------------------------------------
      1          6           0       -2.320440   -1.216013   -0.538658
      2          6           0       -2.787491    1.343156    0.608357
      3          6           0        2.339672   -1.354838    0.210431
      4          6           0       -1.215749   -0.542247    0.255203
      5          6           0       -1.385149    0.969010    0.150035
      6          8           0        1.443144    0.694343   -0.693744
      7          6           0        3.623228   -0.628704    0.613239
      8          8           0       -3.783571    0.692017   -0.172786
      9          6           0        3.832943    0.596987   -0.272838
     10          6           0        1.178780   -0.381943    0.194856
     11          6           0        2.579042    1.452930   -0.272754
     12          6           0       -3.677937   -0.723337   -0.063013
     13          8           0        0.028825   -1.034036   -0.259595
     14          1           0       -2.192858   -0.974104   -1.595832
     15          1           0       -2.266119   -2.299270   -0.424267
     16          1           0       -2.957172    2.411805    0.499037
     17          1           0       -2.926640    1.075519    1.662009
     18          1           0        2.436843   -1.776473   -0.792982
     19          1           0        2.110351   -2.165166    0.902122
     20          1           0       -1.286355   -0.833570    1.309416
     21          1           0       -0.657868    1.498534    0.765782
     22          1           0       -1.246860    1.278927   -0.887408
     23          1           0        4.474792   -1.304916    0.550401
     24          1           0        3.540516   -0.308145    1.655250
     25          1           0        4.046625    0.284465   -1.297460
     26          1           0        4.675715    1.194020    0.076707
     27          1           0        1.012299    0.028509    1.200020
     28          1           0        2.389550    1.851249    0.730842
     29          1           0        2.658456    2.287593   -0.965537
     30          1           0       -3.842071   -1.014622    0.980395
     31          1           0       -4.477771   -1.142956   -0.668646
 ---------------------------------------------------------------------

 SCF Done:  E(RM062X) =  -617.508855488     A.U. after    1 cycles

 The electronic state is 1-A.
 Alpha  occ. eigenvalues --  -19.63549 -19.62911 -19.62817 -10.63180 -10.58613
 Alpha  occ. eigenvalues --  -10.57640 -10.57617 -10.57464 -10.52547 -10.52511
 Alpha  occ. eigenvalues --  -10.52449 -10.52381 -10.52219  -1.19808  -1.16193
 Alpha  occ. eigenvalues --   -1.13617  -0.90726  -0.89394  -0.86152  -0.84571
 Alpha  occ. eigenvalues --   -0.74693  -0.73178  -0.72188  -0.69682  -0.65795
 Alpha  occ. eigenvalues --   -0.64670  -0.59678  -0.57699  -0.56148  -0.54367
 Alpha  occ. eigenvalues --   -0.54240  -0.52671  -0.52348  -0.51329  -0.49622
 Alpha  occ. eigenvalues --   -0.49071  -0.46478  -0.45806  -0.44667  -0.44256
 Alpha  occ. eigenvalues --   -0.42623  -0.41371  -0.40523  -0.39811  -0.39193
 Alpha  occ. eigenvalues --   -0.38146  -0.37208  -0.36822  -0.34984  -0.33383
 Alpha  occ. eigenvalues --   -0.31999
 Alpha virt. eigenvalues --    0.00523   0.01256   0.01377   0.01475   0.02701
 Alpha virt. eigenvalues --    0.02890   0.02986   0.03986   0.04092   0.04795
 Alpha virt. eigenvalues --    0.05157   0.05418   0.05812   0.06249   0.07569

 Mulliken charges:
               1
     1  C   -0.209958
     2  C   -0.464601
     3  C   -0.291653
     4  C   -0.279856
     5  C   -0.091500
     6  O   -0.413846
     7  C   -0.396513
     8  O   -0.369328
     9  C   -0.389347
    10  C    0.157165
    11  C   -0.116797
    12  C   -0.273027
    13  O   -0.398249
    14  H    0.197828
    15  H    0.182627
    16  H    0.207788
    17  H    0.178840
    18  H    0.198532
    19  H    0.172846
    20  H    0.289896
    21  H    0.169022
    22  H    0.241140
    23  H    0.199944
    24  H    0.172177
    25  H    0.163234
    26  H    0.182773
    27  H    0.244296
    28  H    0.154495
    29  H    0.200323
    30  H    0.157913
    31  H    0.223836
 Sum of Mulliken charges =  -0.00000

 Dipole moment (field-independent basis, Debye):
    X=              2.7818    Y=              0.0772    Z=              4.0976  Tot=              4.9533
 Quadrupole moment (field-independent basis, Debye-Ang):
   XX=            -78.5933   YY=            -77.6510   ZZ=            -80.0745
   XY=              7.6261   XZ=             -1.4535   YZ=              0.9911

  Exact polarizability: 184.630   4.389 176.143  -0.457   1.243 168.016
 Approx polarizability: 145.953   2.929 144.623   0.356   0.695 142.520

                      1                      2                      3
                      A                      A                      A
 Frequencies --     48.9275                69.7387                77.1365
 Red. masses --      3.4432                 3.7428                 3.8607
 Frc consts  --      0.0049                 0.0107                 0.0135
 IR Inten    --      0.8419                 0.4567                 1.1786

                      4                      5                      6
                      A                      A                      A
 Frequencies --    157.6642               210.8097               249.1894
 Red. masses --      3.4396                 3.6740                 2.0541
 Frc consts  --      0.0504                 0.0962                 0.0752
 IR Inten    --      8.7118                 7.0050                 2.7089

                      7                      8                      9
                      A                      A                      A
 Frequencies --    256.4535               268.7798               306.6806
 Red. masses --      2.1830                 3.4852                 2.9303
 Frc consts  --      0.0846                 0.1483                 0.1624
 IR Inten    --     11.0771                 1.7388                 3.0963

                     10                     11                     12
                      A                      A                      A
 Frequencies --    358.3488               388.4175               435.7996
 Red. masses --      2.0866                 2.3230                 4.0319
 Frc consts  --      0.1579                 0.2065                 0.4512
 IR Inten    --      1.8722                11.3668                 4.0673

                     13                     14                     15
                      A                      A                      A
 Frequencies --    461.7427               475.2403               498.9692
 Red. masses --      2.7254                 2.9643                 2.5765
 Frc consts  --      0.3424                 0.3945                 0.3779
 IR Inten    --      1.5159                 1.0863                 2.5434

                     16                     17                     18
                      A                      A                      A
 Frequencies --    525.5293               550.3688               606.9069
 Red. masses --      2.6464                 2.6728                 2.4843
 Frc consts  --      0.4306                 0.4770                 0.5391
 IR Inten    --      3.6158                 0.4816                14.0026

                     19                     20                     21
                      A                      A                      A
 Frequencies --    653.5949               833.3425               834.7733
 Red. masses --      2.5084                 1.5041                 1.7966
 Frc consts  --      0.6313                 0.6154                 0.7376
 IR Inten    --     32.1581                 2.8304                 6.5209

                     22                     23                     24
                      A                      A                      A
 Frequencies --    842.1482               863.0370               881.2592
 Red. masses --      2.5673                 1.9978                 1.8786
 Frc consts  --      1.0728                 0.8767                 0.8596
 IR Inten    --     14.7276                10.1183                18.8770

                     25                     26                     27
                      A                      A                      A
 Frequencies --    900.1649               934.4504               938.0798
 Red. masses --      2.5226                 2.4550                 1.7238
 Frc consts  --      1.2043                 1.2630                 0.8938
 IR Inten    --     38.4817                41.7552                 5.6226

                     28                     29                     30
                      A                      A                      A
 Frequencies --    959.1559               993.1095              1004.9524
 Red. masses --      2.1420                 1.7396                 1.4959
 Frc consts  --      1.1610                 1.0109                 0.8901
 IR Inten    --      8.6733                47.5855                30.9491

                     31                     32                     33
                      A                      A                      A
 Frequencies --   1016.8635              1038.3893              1057.3352
 Red. masses --      2.0987                 2.1283                 1.5371
 Frc consts  --      1.2786                 1.3521                 1.0124
 IR Inten    --     10.4262                33.4620                92.2407

                     34                     35                     36
                      A                      A                      A
 Frequencies --   1089.5038              1103.1875              1118.7080
 Red. masses --      2.7897                 2.9199                 4.1027
 Frc consts  --      1.9510                 2.0937                 3.0252
 IR Inten    --     73.6227                25.0032               312.1728

                     37                     38                     39
                      A                      A                      A
 Frequencies --   1129.6196              1156.9037              1169.8975
 Red. masses --      2.9670                 2.3378                 2.8372
 Frc consts  --      2.2306                 1.8435                 2.2879
 IR Inten    --     29.8422                12.6080                55.3110

                     40                     41                     42
                      A                      A                      A
 Frequencies --   1184.5220              1194.4777              1204.8265
 Red. masses --      2.0887                 1.3916                 1.6548
 Frc consts  --      1.7267                 1.1698                 1.4153
 IR Inten    --     79.0538                19.4172               101.8759

                     43                     44                     45
                      A                      A                      A
 Frequencies --   1224.7438              1239.1785              1272.7052
 Red. masses --      3.3436                 1.6613                 1.3083
 Frc consts  --      2.9550                 1.5030                 1.2486
 IR Inten    --    310.2294                41.5840                 5.9007

                     46                     47                     48
                      A                      A                      A
 Frequencies --   1278.6495              1281.7075              1315.9707
 Red. masses --      1.2351                 1.2695                 1.2138
 Frc consts  --      1.1897                 1.2287                 1.2385
 IR Inten    --     11.1688                 2.8790                35.5228

                     49                     50                     51
                      A                      A                      A
 Frequencies --   1322.0459              1341.8752              1350.2135
 Red. masses --      1.3356                 1.3339                 1.2875
 Frc consts  --      1.3753                 1.4151                 1.3829
 IR Inten    --     10.9149                13.9261                 1.7173

                     52                     53                     54
                      A                      A                      A
 Frequencies --   1360.6690              1367.9307              1384.8013
 Red. masses --      1.1935                 1.4269                 1.4980
 Frc consts  --      1.3019                 1.5731                 1.6925
 IR Inten    --     13.2586                 0.1423                 8.1749

                     55                     56                     57
                      A                      A                      A
 Frequencies --   1389.3317              1391.2824              1406.0909
 Red. masses --      1.2779                 1.3055                 1.5061
 Frc consts  --      1.4533                 1.4888                 1.7544
 IR Inten    --     30.6210                16.6777                58.5997

                     58                     59                     60
                      A                      A                      A
 Frequencies --   1408.6872              1420.6824              1430.0717
 Red. masses --      1.4886                 1.3418                 1.3375
 Frc consts  --      1.7404                 1.5956                 1.6116
 IR Inten    --     23.8079                20.9417                 5.0857

                     61                     62                     63
                      A                      A                      A
 Frequencies --   1449.7950              1465.2667              1468.5819
 Red. masses --      1.4562                 1.1039                 1.1107
 Frc consts  --      1.8034                 1.3964                 1.4113
 IR Inten    --     35.4030                 4.9160                 4.3434

                     64                     65                     66
                      A                      A                      A
 Frequencies --   1473.3473              1480.6094              1490.0741
 Red. masses --      1.1280                 1.1291                 1.1271
 Frc consts  --      1.4426                 1.4584                 1.4744
 IR Inten    --     10.3172                 8.3090                25.9253

                     67                     68                     69
                      A                      A                      A
 Frequencies --   1499.4201              1503.5905              1507.7868
 Red. masses --      1.0835                 1.0965                 1.1014
 Frc consts  --      1.4352                 1.4605                 1.4753
 IR Inten    --      3.2241                 5.1994                 8.4083

                     70                     71                     72
                      A                      A                      A
 Frequencies --   3017.7033              3033.9767              3034.1394
 Red. masses --      1.0833                 1.0764                 1.0718
 Frc consts  --      5.8126                 5.8379                 5.8137
 IR Inten    --     62.8875                32.4254                36.3848

                     73                     74                     75
                      A                      A                      A
 Frequencies --   3035.8977              3038.1575              3059.4660
 Red. masses --      1.0741                 1.0713                 1.0686
 Frc consts  --      5.8328                 5.8263                 5.8934
 IR Inten    --     87.4455               117.6831                26.1159

                     76                     77                     78
                      A                      A                      A
 Frequencies --   3069.3722              3071.2813              3074.4560
 Red. masses --      1.0617                 1.0616                 1.0601
 Frc consts  --      5.8934                 5.8999                 5.9041
 IR Inten    --     35.5719                48.4757                24.1514

                     79                     80                     81
                      A                      A                      A
 Frequencies --   3079.1794              3118.1366              3121.3872
 Red. masses --      1.0606                 1.0971                 1.1014
 Frc consts  --      5.9247                 6.2845                 6.3225
 IR Inten    --     35.8748                40.7270                59.6059

                     82                     83                     84
                      A                      A                      A
 Frequencies --   3126.3138              3127.9361              3131.4583
 Red. masses --      1.1039                 1.1035                 1.1039
 Frc consts  --      6.3568                 6.3614                 6.3779
 IR Inten    --     46.0739                50.1726                48.5550

                     85                     86                     87
                      A                      A                      A
 Frequencies --   3141.3388              3141.7145              3143.3882
 Red. masses --      1.0957                 1.0956                 1.0960
 Frc consts  --      6.3706                 6.3714                 6.3808
 IR Inten    --     40.5498                36.8133                34.4065

 - Thermochemistry -
 -------------------
 Temperature   298.150 Kelvin.  Pressure   1.00000 Atm.
 Atom     1 has atomic number  6 and mass  12.00000

 Molecular mass:   186.12559 amu.
 Principal axes and moments of inertia in atomic units:
                           1         2         3
     Eigenvalues --   843.618044735.325075257.94510
           X            0.99999   0.00547   0.00018
           Y           -0.00547   0.99994   0.00909
           Z           -0.00013  -0.00909   0.99996
 This molecule is an asymmetric top.
 Rotational symmetry number  1.
 Warning -- assumption of classical behavior for rotation
           may cause significant error
 Rotational temperatures (Kelvin)      0.10267     0.01829     0.01647
 Rotational constants (GHZ):           2.13929     0.38112     0.34324
 Zero-point vibrational energy     736537.3 (Joules/Mol)
                                  176.03663 (Kcal/Mol)
 Warning -- explicit consideration of  18 degrees of freedom as
           vibrations may cause significant error
 Vibrational temperatures:     70.40   100.34   110.98   226.84   303.31
          (Kelvin)            358.53   368.98   386.71   441.24   515.58
                              558.85   627.02   664.34   683.76   717.91
                              756.12   791.86   873.20   940.38  1198.99
                             1201.05  1211.66  1241.72  1267.94  1295.14
                             1344.47  1349.69  1380.01  1428.86  1445.90
                             1463.04  1494.01  1521.27  1567.55  1587.24
                             1609.57  1625.27  1664.53  1683.22  1704.26
                             1718.59  1733.48  1762.13  1782.90  1831.14
                             1839.69  1844.09  1893.39  1902.13  1930.66
                             1942.66  1957.70  1968.15  1992.42  1998.94
                             2001.75  2023.05  2026.79  2044.05  2057.55
                             2085.93  2108.19  2112.96  2119.82  2130.27
                             2143.88  2157.33  2163.33  2169.37  4341.80
                             4365.22  4365.45  4367.98  4371.23  4401.89
                             4416.14  4418.89  4423.46  4430.25  4486.30
                             4490.98  4498.07  4500.40  4505.47  4519.69
                             4520.23  4522.63

 Zero-point correction=                           0.280532 (Hartree/Particle)
 Thermal correction to Energy=                    0.292237
 Thermal correction to Enthalpy=                  0.293181
 Thermal correction to Gibbs Free Energy=         0.242423
 Sum of electronic and zero-point Energies=           -617.228323
 Sum of electronic and thermal Energies=              -617.216619
 Sum of electronic and thermal Enthalpies=            -617.215675
 Sum of electronic and thermal Free Energies=         -617.266433

                     E (Thermal)             CV                S
                      KCal/Mol        Cal/Mol-Kelvin    Cal/Mol-Kelvin
 Total                  183.381             46.804            106.830
 Electronic               0.000              0.000              0.000
 Translational            0.889              2.981             41.570
 Rotational               0.889              2.981             31.419
 Vibrational            181.604             40.842             33.841
 Vibration     1          0.595              1.978              4.860
 Vibration     2          0.598              1.969              4.161
 Vibration     3          0.599              1.964              3.962
 Vibration     4          0.621              1.894              2.578
 Vibration     5          0.643              1.824              2.037
 Vibration     6          0.662              1.764              1.736
 Vibration     7          0.666              1.752              1.686
 Vibration     8          0.673              1.731              1.604
 Vibration     9          0.697              1.661              1.380
 Vibration    10          0.733              1.558              1.129
 Vibration    11          0.757              1.495              1.006
 Vibration    12          0.796              1.392              0.840
 Vibration    13          0.819              1.335              0.761
 Vibration    14          0.832              1.305              0.723
 Vibration    15          0.854              1.252              0.661
 Vibration    16          0.880              1.193              0.597
 Vibration    17          0.906              1.139              0.543
 Vibration    18          0.966              1.017              0.438

 Optimization completed.
    -- Stationary point found.
 Normal termination of Gaussian 16 at Sat Mar  9 17:08:02 2019.
