 Gaussian 16, Revision B.01,
 Gaussian 16:  ES64L-G16RevB.01 20-Dec-2017

 ----------------------------------------------------------------------
 #M062X/6-311++G(2d,2p) opt=ModRedundant freq=noraman SCRF=(SMD,solvent
 =water)
 ----------------------------------------------------------------------

 -------------------------------
 4c1_b1_e3_4c1_PSI.inp_extract_5
 -------------------------------
 Symbolic Z-matrix:
 Charge =  0 Multiplicity = 1

 SCF Done:  E(RM062X) =  -617.505267452     A.U. after   12 cycles
 SCF Done:  E(RM062X) =  -617.506837292     A.U. after   11 cycles
 SCF Done:  E(RM062X) =  -617.507069814     A.U. after   10 cycles
 SCF Done:  E(RM062X) =  -617.507178431     A.U. after   10 cycles
 SCF Done:  E(RM062X) =  -617.507183166     A.U. after    8 cycles
 SCF Done:  E(RM062X) =  -617.507183471     A.U. after    7 cycles
 Optimization completed.
    -- Stationary point found.
 Normal termination of Gaussian 16 at Sat Mar  9 13:03:59 2019.

 ----------------------------------------------------------------------
 #N Geom=AllCheck Guess=TCheck SCRF=Check GenChk RM062X/6-311++G(2d,2p)
  Freq
 ----------------------------------------------------------------------

 Structure from the checkpoint file:  "4c1_b1_e3_4c1_PSI.inp_extract_5.chk"
 -------------------------------
 4c1_b1_e3_4c1_PSI.inp_extract_5
 -------------------------------
 Charge =  0 Multiplicity = 1

                         Standard orientation:
 ---------------------------------------------------------------------
 Center     Atomic      Atomic             Coordinates (Angstroms)
 Number     Number       Type             X           Y           Z
 ---------------------------------------------------------------------
      1          6           0       -1.362735    0.868830    0.494330
      2          6           0       -3.675580   -0.611326   -0.333670
      3          6           0        2.269804   -1.343021    0.349490
      4          6           0       -1.210834   -0.312186   -0.454294
      5          6           0       -2.330446   -1.309797   -0.218537
      6          8           0        1.517602    0.626216   -0.831754
      7          6           0        3.527592   -0.600063    0.800585
      8          8           0       -3.769034    0.480897    0.575442
      9          6           0        3.852229    0.527953   -0.176637
     10          6           0        1.145794   -0.352475    0.132499
     11          6           0        2.628839    1.403954   -0.381752
     12          6           0       -2.759645    1.450701    0.320185
     13          8           0        0.032627   -1.030065   -0.363527
     14          1           0       -1.243075    0.539177    1.528914
     15          1           0       -0.627546    1.646951    0.289877
     16          1           0       -4.490276   -1.289329   -0.090563
     17          1           0       -3.823624   -0.240804   -1.354109
     18          1           0        2.449747   -1.862439   -0.594511
     19          1           0        1.956855   -2.076719    1.092025
     20          1           0       -1.289716    0.071013   -1.477418
     21          1           0       -2.275052   -2.119592   -0.946842
     22          1           0       -2.222298   -1.736560    0.781038
     23          1           0        4.363768   -1.292876    0.884847
     24          1           0        3.356520   -0.176523    1.793817
     25          1           0        4.152590    0.110841   -1.140507
     26          1           0        4.674926    1.140882    0.192686
     27          1           0        0.912747    0.163773    1.069930
     28          1           0        2.357388    1.905324    0.554602
     29          1           0        2.796600    2.162629   -1.142808
     30          1           0       -2.882968    1.837898   -0.697404
     31          1           0       -2.926256    2.264547    1.021939
 ---------------------------------------------------------------------

 SCF Done:  E(RM062X) =  -617.507183471     A.U. after    1 cycles

 The electronic state is 1-A.
 Alpha  occ. eigenvalues --  -19.63469 -19.62959 -19.62879 -10.63105 -10.58597
 Alpha  occ. eigenvalues --  -10.57730 -10.57635 -10.57472 -10.52702 -10.52527
 Alpha  occ. eigenvalues --  -10.52513 -10.52404 -10.52229  -1.19778  -1.16234
 Alpha  occ. eigenvalues --   -1.13425  -0.90788  -0.89397  -0.86282  -0.84599
 Alpha  occ. eigenvalues --   -0.75113  -0.73232  -0.72095  -0.69621  -0.65564
 Alpha  occ. eigenvalues --   -0.64585  -0.59873  -0.57225  -0.56757  -0.54372
 Alpha  occ. eigenvalues --   -0.54030  -0.52675  -0.52266  -0.51000  -0.50096
 Alpha  occ. eigenvalues --   -0.49624  -0.46504  -0.45597  -0.44339  -0.43809
 Alpha  occ. eigenvalues --   -0.43193  -0.41364  -0.40740  -0.40006  -0.39153
 Alpha  occ. eigenvalues --   -0.38115  -0.37225  -0.36840  -0.34560  -0.33190
 Alpha  occ. eigenvalues --   -0.32381
 Alpha virt. eigenvalues --    0.00479   0.01304   0.01337   0.01493   0.02681
 Alpha virt. eigenvalues --    0.02877   0.03014   0.03972   0.04101   0.04797
 Alpha virt. eigenvalues --    0.05101   0.05531   0.05816   0.06054   0.07242

 Mulliken charges:
               1
     1  C   -0.147302
     2  C   -0.272162
     3  C   -0.391568
     4  C   -0.151157
     5  C   -0.211532
     6  O   -0.394292
     7  C   -0.405444
     8  O   -0.367808
     9  C   -0.391543
    10  C    0.022208
    11  C   -0.076682
    12  C   -0.366359
    13  O   -0.424655
    14  H    0.231201
    15  H    0.201145
    16  H    0.218494
    17  H    0.157519
    18  H    0.199445
    19  H    0.180685
    20  H    0.286332
    21  H    0.182505
    22  H    0.191601
    23  H    0.206544
    24  H    0.173825
    25  H    0.164616
    26  H    0.179892
    27  H    0.267771
    28  H    0.147055
    29  H    0.200655
    30  H    0.180263
    31  H    0.208747
 Sum of Mulliken charges =  -0.00000

 Dipole moment (field-independent basis, Debye):
    X=              2.5192    Y=              1.3996    Z=              1.0899  Tot=              3.0810
 Quadrupole moment (field-independent basis, Debye-Ang):
   XX=            -78.7741   YY=            -77.0785   ZZ=            -81.4284
   XY=              4.4550   XZ=              9.2060   YZ=             -0.1129

  Exact polarizability: 184.918   3.350 176.222   2.269   0.473 167.055
 Approx polarizability: 146.204   2.605 144.690   0.751   0.710 142.007

                      1                      2                      3
                      A                      A                      A
 Frequencies --     31.7572                67.4163                85.7911
 Red. masses --      3.6842                 3.6040                 3.7336
 Frc consts  --      0.0022                 0.0097                 0.0162
 IR Inten    --      4.2410                 0.8496                 2.4100

                      4                      5                      6
                      A                      A                      A
 Frequencies --    168.2535               205.5842               252.5425
 Red. masses --      3.6233                 3.4424                 2.0878
 Frc consts  --      0.0604                 0.0857                 0.0785
 IR Inten    --      7.5105                 8.4503                 8.8565

                      7                      8                      9
                      A                      A                      A
 Frequencies --    257.2671               270.4802               308.9166
 Red. masses --      2.5831                 2.7253                 3.3961
 Frc consts  --      0.1007                 0.1175                 0.1909
 IR Inten    --      2.1837                 3.6351                 2.7915

                     10                     11                     12
                      A                      A                      A
 Frequencies --    360.3724               381.3701               434.1368
 Red. masses --      2.0396                 2.3553                 3.4308
 Frc consts  --      0.1561                 0.2018                 0.3810
 IR Inten    --      5.7668                 6.8290                 3.9032

                     13                     14                     15
                      A                      A                      A
 Frequencies --    463.6992               480.7080               488.3052
 Red. masses --      2.8636                 2.9811                 2.6635
 Frc consts  --      0.3628                 0.4059                 0.3742
 IR Inten    --      1.5430                 0.8749                 0.4372

                     16                     17                     18
                      A                      A                      A
 Frequencies --    527.5946               558.9862               612.5209
 Red. masses --      2.4690                 2.5195                 2.6388
 Frc consts  --      0.4049                 0.4638                 0.5833
 IR Inten    --      6.8173                 1.1267                 9.8837

                     19                     20                     21
                      A                      A                      A
 Frequencies --    662.9484               831.4726               837.2903
 Red. masses --      2.7749                 1.8226                 1.5263
 Frc consts  --      0.7185                 0.7424                 0.6304
 IR Inten    --     41.6151                14.6838                 2.8955

                     22                     23                     24
                      A                      A                      A
 Frequencies --    840.6893               863.3645               881.3535
 Red. masses --      2.5180                 1.9745                 1.9661
 Frc consts  --      1.0485                 0.8671                 0.8998
 IR Inten    --     12.5788                15.2944                28.3730

                     25                     26                     27
                      A                      A                      A
 Frequencies --    899.6643               929.2715               941.6943
 Red. masses --      2.4900                 2.3682                 1.7627
 Frc consts  --      1.1874                 1.2049                 0.9210
 IR Inten    --     21.3033                63.4050                 1.4300

                     28                     29                     30
                      A                      A                      A
 Frequencies --    957.9398               987.6387              1004.3822
 Red. masses --      2.2185                 1.8077                 1.5032
 Frc consts  --      1.1995                 1.0389                 0.8934
 IR Inten    --     12.0954                30.1415                29.5387

                     31                     32                     33
                      A                      A                      A
 Frequencies --   1013.6194              1037.5526              1055.1272
 Red. masses --      1.9803                 2.1807                 1.5726
 Frc consts  --      1.1987                 1.3832                 1.0315
 IR Inten    --     18.0867                46.7421               109.8383

                     34                     35                     36
                      A                      A                      A
 Frequencies --   1086.7518              1095.6651              1114.2481
 Red. masses --      3.2161                 2.3945                 4.0207
 Frc consts  --      2.2379                 1.6936                 2.9411
 IR Inten    --     29.7854                47.9066               293.6293

                     37                     38                     39
                      A                      A                      A
 Frequencies --   1134.1536              1158.9514              1168.9000
 Red. masses --      3.2036                 2.3441                 2.6031
 Frc consts  --      2.4279                 1.8550                 2.0955
 IR Inten    --     47.5881                13.4188                28.7549

                     40                     41                     42
                      A                      A                      A
 Frequencies --   1188.1254              1197.9547              1206.9873
 Red. masses --      2.0605                 1.3142                 1.7192
 Frc consts  --      1.7137                 1.1112                 1.4757
 IR Inten    --     67.6345                11.0273               102.7911

                     43                     44                     45
                      A                      A                      A
 Frequencies --   1222.3490              1238.6424              1274.0065
 Red. masses --      3.3842                 1.6694                 1.3085
 Frc consts  --      2.9791                 1.5091                 1.2513
 IR Inten    --    343.9300                43.0859                 4.0383

                     46                     47                     48
                      A                      A                      A
 Frequencies --   1278.7939              1279.7501              1315.8520
 Red. masses --      1.2445                 1.2650                 1.1974
 Frc consts  --      1.1991                 1.2207                 1.2215
 IR Inten    --     19.7276                 3.4367                30.4347

                     49                     50                     51
                      A                      A                      A
 Frequencies --   1325.0521              1343.1503              1351.8550
 Red. masses --      1.3891                 1.3219                 1.3064
 Frc consts  --      1.4370                 1.4051                 1.4066
 IR Inten    --     35.6312                12.1617                 3.8553

                     52                     53                     54
                      A                      A                      A
 Frequencies --   1365.8303              1368.4946              1385.2690
 Red. masses --      1.2083                 1.4246                 1.5116
 Frc consts  --      1.3281                 1.5720                 1.7091
 IR Inten    --      4.9966                 0.5662                 4.3064

                     55                     56                     57
                      A                      A                      A
 Frequencies --   1392.1980              1396.9367              1407.6751
 Red. masses --      1.2885                 1.2202                 1.4681
 Frc consts  --      1.4714                 1.4030                 1.7140
 IR Inten    --      2.9371                33.4674                39.2890

                     58                     59                     60
                      A                      A                      A
 Frequencies --   1417.2141              1422.1793              1430.3661
 Red. masses --      1.4373                 1.3588                 1.3348
 Frc consts  --      1.7009                 1.6193                 1.6091
 IR Inten    --     12.6453                30.4059                 5.5306

                     61                     62                     63
                      A                      A                      A
 Frequencies --   1444.1102              1468.8983              1469.8073
 Red. masses --      1.5040                 1.1007                 1.1072
 Frc consts  --      1.8480                 1.3993                 1.4093
 IR Inten    --     33.1712                 6.1257                 4.1528

                     64                     65                     66
                      A                      A                      A
 Frequencies --   1473.8905              1482.4359              1490.4534
 Red. masses --      1.1107                 1.1202                 1.1284
 Frc consts  --      1.4216                 1.4505                 1.4769
 IR Inten    --      7.5299                 6.4129                29.3281

                     67                     68                     69
                      A                      A                      A
 Frequencies --   1500.4504              1503.2604              1509.1716
 Red. masses --      1.0829                 1.0954                 1.1020
 Frc consts  --      1.4365                 1.4584                 1.4788
 IR Inten    --      3.0837                 5.0074                 7.9805

                     70                     71                     72
                      A                      A                      A
 Frequencies --   3034.4936              3036.5109              3038.8679
 Red. masses --      1.0702                 1.0803                 1.0699
 Frc consts  --      5.8062                 5.8689                 5.8213
 IR Inten    --     63.3716                 5.4753                31.5156

                     73                     74                     75
                      A                      A                      A
 Frequencies --   3039.8433              3053.7429              3060.6089
 Red. masses --      1.0725                 1.0814                 1.0687
 Frc consts  --      5.8392                 5.9414                 5.8985
 IR Inten    --    158.4930                35.0813                25.1556

                     76                     77                     78
                      A                      A                      A
 Frequencies --   3068.8963              3071.7601              3073.5503
 Red. masses --      1.0615                 1.0614                 1.0615
 Frc consts  --      5.8900                 5.9007                 5.9083
 IR Inten    --     43.1679                 1.9097                51.5404

                     79                     80                     81
                      A                      A                      A
 Frequencies --   3075.4175              3117.8322              3121.7076
 Red. masses --      1.0628                 1.0984                 1.1001
 Frc consts  --      5.9227                 6.2909                 6.3166
 IR Inten    --     80.5377                42.1542                56.4335

                     82                     83                     84
                      A                      A                      A
 Frequencies --   3126.2370              3128.7890              3132.6295
 Red. masses --      1.1035                 1.1042                 1.1016
 Frc consts  --      6.3541                 6.3688                 6.3696
 IR Inten    --     44.2619                54.2355                32.4381

                     85                     86                     87
                      A                      A                      A
 Frequencies --   3140.0276              3143.3792              3145.0214
 Red. masses --      1.0958                 1.0957                 1.0963
 Frc consts  --      6.3659                 6.3789                 6.3888
 IR Inten    --     43.6218                39.2602                33.1754

 - Thermochemistry -
 -------------------
 Temperature   298.150 Kelvin.  Pressure   1.00000 Atm.
 Atom     1 has atomic number  6 and mass  12.00000

 Molecular mass:   186.12559 amu.
 Principal axes and moments of inertia in atomic units:
                           1         2         3
     Eigenvalues --   856.352984743.247135187.63943
           X            0.99996   0.00306   0.00874
           Y           -0.00303   0.99999  -0.00323
           Z           -0.00875   0.00320   0.99996
 This molecule is an asymmetric top.
 Rotational symmetry number  1.
 Warning -- assumption of classical behavior for rotation
           may cause significant error
 Rotational temperatures (Kelvin)      0.10114     0.01826     0.01670
 Rotational constants (GHZ):           2.10747     0.38049     0.34789
 Zero-point vibrational energy     737012.4 (Joules/Mol)
                                  176.15020 (Kcal/Mol)
 Warning -- explicit consideration of  18 degrees of freedom as
           vibrations may cause significant error
 Vibrational temperatures:     45.69    97.00   123.43   242.08   295.79
          (Kelvin)            363.35   370.15   389.16   444.46   518.50
                              548.71   624.63   667.16   691.63   702.56
                              759.09   804.26   881.28   953.83  1196.30
                             1204.67  1209.56  1242.19  1268.07  1294.42
                             1337.01  1354.89  1378.26  1420.99  1445.08
                             1458.37  1492.81  1518.09  1563.59  1576.42
                             1603.15  1631.79  1667.47  1681.79  1709.45
                             1723.59  1736.59  1758.69  1782.13  1833.01
                             1839.90  1841.28  1893.22  1906.45  1932.49
                             1945.02  1965.13  1968.96  1993.09  2003.06
                             2009.88  2025.33  2039.06  2046.20  2057.98
                             2077.75  2113.42  2114.72  2120.60  2132.89
                             2144.43  2158.81  2162.86  2171.36  4365.96
                             4368.86  4372.25  4373.66  4393.65  4403.53
                             4415.46  4419.58  4422.15  4424.84  4485.87
                             4491.44  4497.96  4501.63  4507.16  4517.80
                             4522.62  4524.98

 Zero-point correction=                           0.280713 (Hartree/Particle)
 Thermal correction to Energy=                    0.292417
 Thermal correction to Enthalpy=                  0.293361
 Thermal correction to Gibbs Free Energy=         0.242328
 Sum of electronic and zero-point Energies=           -617.226470
 Sum of electronic and thermal Energies=              -617.214766
 Sum of electronic and thermal Enthalpies=            -617.213822
 Sum of electronic and thermal Free Energies=         -617.264856

                     E (Thermal)             CV                S
                      KCal/Mol        Cal/Mol-Kelvin    Cal/Mol-Kelvin
 Total                  183.495             46.762            107.410
 Electronic               0.000              0.000              0.000
 Translational            0.889              2.981             41.570
 Rotational               0.889              2.981             31.422
 Vibrational            181.717             40.801             34.418
 Vibration     1          0.594              1.983              5.717
 Vibration     2          0.598              1.970              4.227
 Vibration     3          0.601              1.959              3.754
 Vibration     4          0.625              1.882              2.455
 Vibration     5          0.640              1.832              2.083
 Vibration     6          0.664              1.758              1.713
 Vibration     7          0.667              1.750              1.680
 Vibration     8          0.674              1.728              1.593
 Vibration     9          0.698              1.657              1.368
 Vibration    10          0.735              1.554              1.120
 Vibration    11          0.751              1.510              1.034
 Vibration    12          0.795              1.396              0.845
 Vibration    13          0.821              1.331              0.755
 Vibration    14          0.837              1.293              0.708
 Vibration    15          0.844              1.276              0.688
 Vibration    16          0.883              1.189              0.593
 Vibration    17          0.915              1.120              0.526
 Vibration    18          0.972              1.005              0.429

 Optimization completed.
    -- Stationary point found.
 Normal termination of Gaussian 16 at Sat Mar  9 14:07:06 2019.
