 Gaussian 16, Revision B.01,
 Gaussian 16:  ES64L-G16RevB.01 20-Dec-2017

 ----------------------------------------------------------------------
 #M062X/6-311++G(2d,2p) opt=ModRedundant freq=noraman SCRF=(SMD,solvent
 =water)
 ----------------------------------------------------------------------

 -------------------------------
 4c1_b1_e3_4c1_PSI.inp_extract_6
 -------------------------------
 Symbolic Z-matrix:
 Charge =  0 Multiplicity = 1

 SCF Done:  E(RM062X) =  -617.503214974     A.U. after   12 cycles
 SCF Done:  E(RM062X) =  -617.504755119     A.U. after   11 cycles
 SCF Done:  E(RM062X) =  -617.504975297     A.U. after   10 cycles
 SCF Done:  E(RM062X) =  -617.505109191     A.U. after   10 cycles
 SCF Done:  E(RM062X) =  -617.505117034     A.U. after    8 cycles
 SCF Done:  E(RM062X) =  -617.505117519     A.U. after    7 cycles
 Optimization completed.
    -- Stationary point found.
 Normal termination of Gaussian 16 at Sat Mar  9 13:21:48 2019.

 ----------------------------------------------------------------------
 #N Geom=AllCheck Guess=TCheck SCRF=Check GenChk RM062X/6-311++G(2d,2p)
  Freq
 ----------------------------------------------------------------------

 Structure from the checkpoint file:  "4c1_b1_e3_4c1_PSI.inp_extract_6.chk"
 -------------------------------
 4c1_b1_e3_4c1_PSI.inp_extract_6
 -------------------------------
 Charge =  0 Multiplicity = 1

                         Standard orientation:
 ---------------------------------------------------------------------
 Center     Atomic      Atomic             Coordinates (Angstroms)
 Number     Number       Type             X           Y           Z
 ---------------------------------------------------------------------
      1          6           0       -1.357173    0.932935    0.342356
      2          6           0       -3.672553   -0.676773   -0.171499
      3          6           0        2.230861   -1.367207    0.260176
      4          6           0       -1.241772   -0.307829   -0.532398
      5          6           0       -2.295833   -1.320541   -0.120511
      6          8           0        1.564978    0.692783   -0.811920
      7          6           0        3.475661   -0.679577    0.822113
      8          8           0       -3.731990    0.484891    0.650393
      9          6           0        3.863116    0.508593   -0.055483
     10          6           0        1.129934   -0.346884    0.059778
     11          6           0        2.662779    1.417079   -0.254037
     12          6           0       -2.782498    1.459929    0.234313
     13          8           0        0.038598   -0.968640   -0.543484
     14          1           0       -1.161014    0.685206    1.387141
     15          1           0       -0.660278    1.710648    0.031761
     16          1           0       -4.436767   -1.357375    0.196419
     17          1           0       -3.920624   -0.398604   -1.201846
     18          1           0        2.449551   -1.822839   -0.708325
     19          1           0        1.872500   -2.145723    0.933315
     20          1           0       -1.437165   -0.001144   -1.565075
     21          1           0       -2.272530   -2.183587   -0.786792
     22          1           0       -2.084839   -1.662484    0.895308
     23          1           0        4.296842   -1.391189    0.897023
     24          1           0        3.262190   -0.323778    1.833582
     25          1           0        4.203446    0.155744   -1.031670
     26          1           0        4.675614    1.079339    0.395111
     27          1           0        0.856530    0.104198    1.018841
     28          1           0        2.353250    1.854003    0.702582
     29          1           0        2.877600    2.226147   -0.948525
     30          1           0       -3.000383    1.757016   -0.797564
     31          1           0       -2.921756    2.323797    0.879964
 ---------------------------------------------------------------------

 SCF Done:  E(RM062X) =  -617.505117519     A.U. after    1 cycles

 The electronic state is 1-A.
 Alpha  occ. eigenvalues --  -19.63388 -19.62960 -19.62785 -10.63120 -10.58634
 Alpha  occ. eigenvalues --  -10.57736 -10.57632 -10.57432 -10.52715 -10.52512
 Alpha  occ. eigenvalues --  -10.52471 -10.52387 -10.52210  -1.19639  -1.16224
 Alpha  occ. eigenvalues --   -1.13348  -0.90761  -0.89399  -0.86266  -0.84613
 Alpha  occ. eigenvalues --   -0.75061  -0.73197  -0.72108  -0.69674  -0.65621
 Alpha  occ. eigenvalues --   -0.64568  -0.59833  -0.57170  -0.56607  -0.54362
 Alpha  occ. eigenvalues --   -0.53874  -0.52639  -0.52342  -0.50979  -0.50082
 Alpha  occ. eigenvalues --   -0.49702  -0.46529  -0.45572  -0.44397  -0.43795
 Alpha  occ. eigenvalues --   -0.43055  -0.41430  -0.40695  -0.40017  -0.39178
 Alpha  occ. eigenvalues --   -0.38175  -0.37222  -0.36719  -0.34408  -0.33169
 Alpha  occ. eigenvalues --   -0.32301
 Alpha virt. eigenvalues --    0.00472   0.01305   0.01342   0.01486   0.02675
 Alpha virt. eigenvalues --    0.02872   0.03026   0.03973   0.04071   0.04797
 Alpha virt. eigenvalues --    0.05086   0.05497   0.05841   0.06082   0.07319

 Mulliken charges:
               1
     1  C   -0.121741
     2  C   -0.266459
     3  C   -0.351193
     4  C   -0.200430
     5  C   -0.179039
     6  O   -0.402675
     7  C   -0.395184
     8  O   -0.367024
     9  C   -0.401297
    10  C    0.068566
    11  C   -0.081198
    12  C   -0.430688
    13  O   -0.430945
    14  H    0.239080
    15  H    0.197689
    16  H    0.216089
    17  H    0.157968
    18  H    0.200178
    19  H    0.176853
    20  H    0.288282
    21  H    0.182830
    22  H    0.187873
    23  H    0.205778
    24  H    0.173732
    25  H    0.163428
    26  H    0.180573
    27  H    0.253221
    28  H    0.149976
    29  H    0.200493
    30  H    0.177091
    31  H    0.208172
 Sum of Mulliken charges =  -0.00000

 Dipole moment (field-independent basis, Debye):
    X=              2.1800    Y=              1.0259    Z=              1.3401  Tot=              2.7569
 Quadrupole moment (field-independent basis, Debye-Ang):
   XX=            -78.2934   YY=            -76.7362   ZZ=            -82.3361
   XY=              4.3929   XZ=              9.8817   YZ=             -0.5792

  Exact polarizability: 185.331   3.488 176.525   2.284   0.627 166.344
 Approx polarizability: 146.388   2.571 144.622   0.819   0.834 141.949

 ******    1 imaginary frequencies (negative Signs) ******

                      1                      2                      3
                      A                      A                      A
 Frequencies --    -44.6008                65.5163                82.3162
 Red. masses --      3.4860                 3.7497                 3.8625
 Frc consts  --      0.0041                 0.0095                 0.0154
 IR Inten    --      4.0578                 1.2640                 2.3807

                      4                      5                      6
                      A                      A                      A
 Frequencies --    162.8066               209.3553               250.4724
 Red. masses --      3.6678                 3.4611                 1.8650
 Frc consts  --      0.0573                 0.0894                 0.0689
 IR Inten    --      7.7288                 8.0767                 2.2481

                      7                      8                      9
                      A                      A                      A
 Frequencies --    256.8778               263.3383               303.6188
 Red. masses --      2.4424                 3.2750                 3.6258
 Frc consts  --      0.0950                 0.1338                 0.1969
 IR Inten    --     11.5326                 0.7466                 3.0445

                     10                     11                     12
                      A                      A                      A
 Frequencies --    360.1998               377.5920               430.5518
 Red. masses --      1.9806                 2.3895                 3.1889
 Frc consts  --      0.1514                 0.2007                 0.3483
 IR Inten    --      6.4272                 6.4166                 3.5258

                     13                     14                     15
                      A                      A                      A
 Frequencies --    462.7650               479.1017               484.7130
 Red. masses --      2.8956                 3.0941                 2.6921
 Frc consts  --      0.3654                 0.4184                 0.3727
 IR Inten    --      1.6788                 1.1363                 0.8202

                     16                     17                     18
                      A                      A                      A
 Frequencies --    528.1457               560.7672               608.7441
 Red. masses --      2.4100                 2.6110                 2.5923
 Frc consts  --      0.3961                 0.4838                 0.5660
 IR Inten    --      5.6571                 0.2788                10.1913

                     19                     20                     21
                      A                      A                      A
 Frequencies --    663.3437               830.6339               836.5884
 Red. masses --      2.7972                 1.8193                 1.4734
 Frc consts  --      0.7252                 0.7396                 0.6076
 IR Inten    --     39.0938                13.7851                 1.9430

                     22                     23                     24
                      A                      A                      A
 Frequencies --    839.2386               863.7470               881.2480
 Red. masses --      2.6691                 1.9469                 2.0560
 Frc consts  --      1.1076                 0.8558                 0.9407
 IR Inten    --     14.1496                16.2269                36.4847

                     25                     26                     27
                      A                      A                      A
 Frequencies --    896.9819               927.4867               937.8074
 Red. masses --      2.4087                 2.3877                 1.7487
 Frc consts  --      1.1418                 1.2102                 0.9061
 IR Inten    --     18.3550                66.3320                 4.0354

                     28                     29                     30
                      A                      A                      A
 Frequencies --    958.1948               985.6793              1000.4737
 Red. masses --      2.2122                 1.7991                 1.4726
 Frc consts  --      1.1967                 1.0298                 0.8685
 IR Inten    --     10.2662                30.9903                25.3854

                     31                     32                     33
                      A                      A                      A
 Frequencies --   1014.2225              1034.3199              1054.4643
 Red. masses --      2.0152                 2.1409                 1.5672
 Frc consts  --      1.2213                 1.3495                 1.0267
 IR Inten    --     14.5547                50.3022               115.1564

                     34                     35                     36
                      A                      A                      A
 Frequencies --   1082.0152              1095.7937              1114.4611
 Red. masses --      3.0343                 2.3559                 4.1788
 Frc consts  --      2.0930                 1.6667                 3.0579
 IR Inten    --     22.5722                45.8475               311.1746

                     37                     38                     39
                      A                      A                      A
 Frequencies --   1131.4125              1157.9155              1169.4227
 Red. masses --      3.2535                 2.3375                 2.5700
 Frc consts  --      2.4538                 1.8465                 2.0708
 IR Inten    --     47.9368                 8.5461                30.4350

                     40                     41                     42
                      A                      A                      A
 Frequencies --   1185.0783              1195.6096              1205.3178
 Red. masses --      2.1158                 1.3540                 1.7645
 Frc consts  --      1.7507                 1.1404                 1.5103
 IR Inten    --     68.8880                23.5062               148.9771

                     43                     44                     45
                      A                      A                      A
 Frequencies --   1217.2650              1237.3404              1272.2624
 Red. masses --      3.0265                 1.6625                 1.3314
 Frc consts  --      2.6421                 1.4997                 1.2697
 IR Inten    --    285.0001                36.0984                19.8503

                     46                     47                     48
                      A                      A                      A
 Frequencies --   1275.9243              1279.3773              1313.4676
 Red. masses --      1.2749                 1.2429                 1.1954
 Frc consts  --      1.2228                 1.1986                 1.2151
 IR Inten    --     15.6333                 4.7946                30.3008

                     49                     50                     51
                      A                      A                      A
 Frequencies --   1325.5103              1340.2471              1351.2345
 Red. masses --      1.4079                 1.3132                 1.3163
 Frc consts  --      1.4574                 1.3898                 1.4160
 IR Inten    --     43.5807                11.2754                 4.5557

                     52                     53                     54
                      A                      A                      A
 Frequencies --   1366.4916              1367.1297              1384.7465
 Red. masses --      1.3849                 1.2525                 1.4837
 Frc consts  --      1.5237                 1.3793                 1.6762
 IR Inten    --      2.5565                 8.9284                 8.6135

                     55                     56                     57
                      A                      A                      A
 Frequencies --   1390.0807              1391.8199              1405.7942
 Red. masses --      1.2918                 1.2453                 1.4867
 Frc consts  --      1.4707                 1.4213                 1.7311
 IR Inten    --      7.6728                20.2448                29.8722

                     58                     59                     60
                      A                      A                      A
 Frequencies --   1416.7079              1422.2004              1428.1018
 Red. masses --      1.3566                 1.3928                 1.3381
 Frc consts  --      1.6042                 1.6598                 1.6079
 IR Inten    --      4.4365                43.8653                 4.0308

                     61                     62                     63
                      A                      A                      A
 Frequencies --   1442.2249              1469.7952              1471.7190
 Red. masses --      1.5031                 1.1010                 1.1217
 Frc consts  --      1.8421                 1.4013                 1.4314
 IR Inten    --     38.2825                 4.9448                 2.5752

                     64                     65                     66
                      A                      A                      A
 Frequencies --   1473.2264              1483.5057              1489.8972
 Red. masses --      1.0963                 1.1184                 1.1220
 Frc consts  --      1.4019                 1.4502                 1.4674
 IR Inten    --     10.3131                 6.5757                26.6630

                     67                     68                     69
                      A                      A                      A
 Frequencies --   1499.6311              1503.8090              1508.6610
 Red. masses --      1.0830                 1.0957                 1.1014
 Frc consts  --      1.4350                 1.4599                 1.4770
 IR Inten    --      3.1501                 5.1435                 8.2220

                     70                     71                     72
                      A                      A                      A
 Frequencies --   3031.0759              3037.1984              3038.4647
 Red. masses --      1.0705                 1.0709                 1.0708
 Frc consts  --      5.7947                 5.8203                 5.8247
 IR Inten    --     70.7554                43.6336                38.0847

                     73                     74                     75
                      A                      A                      A
 Frequencies --   3041.7486              3056.6805              3060.6335
 Red. masses --      1.0812                 1.0811                 1.0689
 Frc consts  --      5.8940                 5.9514                 5.8992
 IR Inten    --    110.4419                24.6480                24.1809

                     76                     77                     78
                      A                      A                      A
 Frequencies --   3068.6346              3071.1829              3073.6878
 Red. masses --      1.0617                 1.0611                 1.0619
 Frc consts  --      5.8906                 5.8970                 5.9111
 IR Inten    --     43.2679                29.9784                42.4032

                     79                     80                     81
                      A                      A                      A
 Frequencies --   3082.1910              3118.4659              3121.7310
 Red. masses --      1.0629                 1.0975                 1.1009
 Frc consts  --      5.9493                 6.2883                 6.3211
 IR Inten    --     63.1643                41.4736                58.5605

                     82                     83                     84
                      A                      A                      A
 Frequencies --   3124.6990              3129.4575              3138.0886
 Red. masses --      1.1035                 1.1039                 1.1019
 Frc consts  --      6.3481                 6.3696                 6.3933
 IR Inten    --     46.0203                52.1446                33.8432

                     85                     86                     87
                      A                      A                      A
 Frequencies --   3139.8630              3143.0281              3144.6123
 Red. masses --      1.0954                 1.0962                 1.0964
 Frc consts  --      6.3626                 6.3805                 6.3880
 IR Inten    --     44.5812                34.9796                34.3884

 - Thermochemistry -
 -------------------
 Temperature   298.150 Kelvin.  Pressure   1.00000 Atm.
 Atom     1 has atomic number  6 and mass  12.00000

 Molecular mass:   186.12559 amu.
 Principal axes and moments of inertia in atomic units:
                           1         2         3
     Eigenvalues --   870.003294714.972415187.22916
           X            0.99995   0.00291   0.00934
           Y           -0.00285   0.99998  -0.00646
           Z           -0.00935   0.00643   0.99994
 This molecule is an asymmetric top.
 Rotational symmetry number  1.
 Warning -- assumption of classical behavior for rotation
           may cause significant error
 Rotational temperatures (Kelvin)      0.09956     0.01837     0.01670
 Rotational constants (GHZ):           2.07441     0.38277     0.34792
    1 imaginary frequencies ignored.
 Zero-point vibrational energy     736289.3 (Joules/Mol)
                                  175.97736 (Kcal/Mol)
 Warning -- explicit consideration of  17 degrees of freedom as
           vibrations may cause significant error
 Vibrational temperatures:     94.26   118.43   234.24   301.22   360.37
          (Kelvin)            369.59   378.89   436.84   518.25   543.27
                              619.47   665.82   689.32   697.39   759.88
                              806.82   875.85   954.40  1195.10  1203.66
                             1207.48  1242.74  1267.92  1290.56  1334.45
                             1349.30  1378.63  1418.17  1439.46  1459.24
                             1488.16  1517.14  1556.78  1576.60  1603.46
                             1627.85  1665.98  1682.54  1705.06  1720.22
                             1734.18  1751.37  1780.26  1830.50  1835.77
                             1840.74  1889.79  1907.11  1928.32  1944.13
                             1966.08  1966.99  1992.34  2000.02  2002.52
                             2022.62  2038.33  2046.23  2054.72  2075.04
                             2114.71  2117.48  2119.64  2134.43  2143.63
                             2157.63  2163.65  2170.63  4361.04  4369.85
                             4371.67  4376.40  4397.88  4403.57  4415.08
                             4418.75  4422.35  4434.59  4486.78  4491.47
                             4495.74  4502.59  4515.01  4517.56  4522.12
                             4524.40

 Zero-point correction=                           0.280438 (Hartree/Particle)
 Thermal correction to Energy=                    0.291320
 Thermal correction to Enthalpy=                  0.292264
 Thermal correction to Gibbs Free Energy=         0.243790
 Sum of electronic and zero-point Energies=           -617.224680
 Sum of electronic and thermal Energies=              -617.213797
 Sum of electronic and thermal Enthalpies=            -617.212853
 Sum of electronic and thermal Free Energies=         -617.261327

                     E (Thermal)             CV                S
                      KCal/Mol        Cal/Mol-Kelvin    Cal/Mol-Kelvin
 Total                  182.806             44.891            102.022
 Electronic               0.000              0.000              0.000
 Translational            0.889              2.981             41.570
 Rotational               0.889              2.981             31.432
 Vibrational            181.029             38.930             29.020
 Vibration     1          0.597              1.971              4.284
 Vibration     2          0.600              1.961              3.835
 Vibration     3          0.623              1.888              2.517
 Vibration     4          0.642              1.826              2.049
 Vibration     5          0.663              1.762              1.727
 Vibration     6          0.666              1.751              1.683
 Vibration     7          0.670              1.740              1.640
 Vibration     8          0.695              1.667              1.397
 Vibration     9          0.735              1.554              1.121
 Vibration    10          0.748              1.518              1.049
 Vibration    11          0.792              1.404              0.857
 Vibration    12          0.820              1.333              0.758
 Vibration    13          0.836              1.296              0.712
 Vibration    14          0.841              1.284              0.697
 Vibration    15          0.883              1.188              0.591
 Vibration    16          0.916              1.116              0.522
 Vibration    17          0.968              1.013              0.435

 Optimization completed.
    -- Stationary point found.
 Normal termination of Gaussian 16 at Sat Mar  9 14:27:40 2019.
