 Gaussian 16, Revision B.01,
 Gaussian 16:  ES64L-G16RevB.01 20-Dec-2017

 ----------------------------------------------------------------------
 #M062X/6-311++G(2d,2p) opt=ModRedundant freq=noraman SCRF=(SMD,solvent
 =water)
 ----------------------------------------------------------------------

 --------------------------------
 4c1_b1_e3_4c1_PSI.inp_extract_21
 --------------------------------
 Symbolic Z-matrix:
 Charge =  0 Multiplicity = 1

 SCF Done:  E(RM062X) =  -617.507443714     A.U. after   12 cycles
 SCF Done:  E(RM062X) =  -617.508990906     A.U. after   10 cycles
 SCF Done:  E(RM062X) =  -617.509147404     A.U. after    9 cycles
 SCF Done:  E(RM062X) =  -617.509187407     A.U. after    9 cycles
 SCF Done:  E(RM062X) =  -617.509197974     A.U. after    9 cycles
 SCF Done:  E(RM062X) =  -617.509200160     A.U. after    8 cycles
 SCF Done:  E(RM062X) =  -617.509200341     A.U. after    7 cycles
 Optimization completed.
    -- Stationary point found.
 Normal termination of Gaussian 16 at Sat Mar  9 16:33:50 2019.

 ----------------------------------------------------------------------
 #N Geom=AllCheck Guess=TCheck SCRF=Check GenChk RM062X/6-311++G(2d,2p)
  Freq
 ----------------------------------------------------------------------

 Structure from the checkpoint file:  "4c1_b1_e3_4c1_PSI.inp_extract_21.chk"
 --------------------------------
 4c1_b1_e3_4c1_PSI.inp_extract_21
 --------------------------------
 Charge =  0 Multiplicity = 1

                         Standard orientation:
 ---------------------------------------------------------------------
 Center     Atomic      Atomic             Coordinates (Angstroms)
 Number     Number       Type             X           Y           Z
 ---------------------------------------------------------------------
      1          6           0       -2.235844   -1.347238    0.031884
      2          6           0       -2.988135    1.401097   -0.006916
      3          6           0        2.351522   -1.303896   -0.387531
      4          6           0       -1.156381   -0.282847    0.139267
      5          6           0       -1.630099    0.988012   -0.555067
      6          8           0        1.474947    0.937675   -0.155104
      7          6           0        3.690561   -0.850018    0.193217
      8          8           0       -3.952430    0.365123   -0.160434
      9          6           0        3.884549    0.645106   -0.047338
     10          6           0        1.234800   -0.430940    0.144736
     11          6           0        2.675552    1.407934    0.463069
     12          6           0       -3.560702   -0.806764    0.546275
     13          8           0        0.034525   -0.809732   -0.458201
     14          1           0       -2.343229   -1.635745   -1.016304
     15          1           0       -1.954271   -2.231786    0.603961
     16          1           0       -3.374693    2.267077   -0.539469
     17          1           0       -2.905162    1.656364    1.055753
     18          1           0        2.358253   -1.212915   -1.476278
     19          1           0        2.140378   -2.341696   -0.131044
     20          1           0       -0.954963   -0.071496    1.194628
     21          1           0       -0.920876    1.800642   -0.409741
     22          1           0       -1.715356    0.791938   -1.626420
     23          1           0        4.504951   -1.424253   -0.246363
     24          1           0        3.700176   -1.044696    1.268941
     25          1           0        4.000594    0.839389   -1.115992
     26          1           0        4.778957    1.010829    0.457777
     27          1           0        1.152222   -0.527876    1.236211
     28          1           0        2.585887    1.293761    1.549220
     29          1           0        2.737727    2.468809    0.231604
     30          1           0       -3.484360   -0.571224    1.613838
     31          1           0       -4.357516   -1.534320    0.410023
 ---------------------------------------------------------------------

 SCF Done:  E(RM062X) =  -617.509200341     A.U. after    1 cycles

 The electronic state is 1-A.
 Alpha  occ. eigenvalues --  -19.63566 -19.62887 -19.62879 -10.63242 -10.58506
 Alpha  occ. eigenvalues --  -10.57604 -10.57546 -10.57475 -10.52529 -10.52454
 Alpha  occ. eigenvalues --  -10.52408 -10.52223 -10.52220  -1.19885  -1.16153
 Alpha  occ. eigenvalues --   -1.13622  -0.90779  -0.89382  -0.86025  -0.84487
 Alpha  occ. eigenvalues --   -0.74676  -0.73045  -0.72024  -0.69932  -0.66158
 Alpha  occ. eigenvalues --   -0.64200  -0.59834  -0.57743  -0.56594  -0.54312
 Alpha  occ. eigenvalues --   -0.54151  -0.52829  -0.51563  -0.50977  -0.49614
 Alpha  occ. eigenvalues --   -0.49443  -0.46188  -0.45666  -0.45147  -0.44141
 Alpha  occ. eigenvalues --   -0.42363  -0.40981  -0.40878  -0.39839  -0.39142
 Alpha  occ. eigenvalues --   -0.38740  -0.37215  -0.36974  -0.34266  -0.33359
 Alpha  occ. eigenvalues --   -0.32235
 Alpha virt. eigenvalues --    0.00519   0.01233   0.01358   0.01478   0.02695
 Alpha virt. eigenvalues --    0.02857   0.02973   0.04011   0.04081   0.04751
 Alpha virt. eigenvalues --    0.05079   0.05507   0.05808   0.06023   0.07251

 Mulliken charges:
               1
     1  C   -0.143296
     2  C   -0.318164
     3  C   -0.268675
     4  C   -0.015503
     5  C   -0.284190
     6  O   -0.412895
     7  C   -0.422818
     8  O   -0.369636
     9  C   -0.329773
    10  C   -0.034333
    11  C   -0.184153
    12  C   -0.332508
    13  O   -0.365373
    14  H    0.198248
    15  H    0.170431
    16  H    0.211232
    17  H    0.168887
    18  H    0.198174
    19  H    0.178387
    20  H    0.240673
    21  H    0.188437
    22  H    0.206872
    23  H    0.202885
    24  H    0.173728
    25  H    0.160985
    26  H    0.182086
    27  H    0.249291
    28  H    0.166780
    29  H    0.199398
    30  H    0.160001
    31  H    0.224824
 Sum of Mulliken charges =  -0.00000

 Dipole moment (field-independent basis, Debye):
    X=              3.4347    Y=             -0.2538    Z=              3.7839  Tot=              5.1166
 Quadrupole moment (field-independent basis, Debye-Ang):
   XX=            -81.1960   YY=            -76.5311   ZZ=            -79.2871
   XY=              2.7521   XZ=             -1.8800   YZ=             -0.6828

  Exact polarizability: 183.907   2.929 176.386   0.397   0.150 167.737
 Approx polarizability: 145.904   2.179 144.499   1.518  -0.066 142.242

                      1                      2                      3
                      A                      A                      A
 Frequencies --     20.3516                61.1350                77.9706
 Red. masses --      2.9789                 4.4319                 4.3184
 Frc consts  --      0.0007                 0.0098                 0.0155
 IR Inten    --      0.8126                 1.2980                 0.4352

                      4                      5                      6
                      A                      A                      A
 Frequencies --    144.1022               225.8977               238.7833
 Red. masses --      3.2951                 3.4987                 1.8700
 Frc consts  --      0.0403                 0.1052                 0.0628
 IR Inten    --      5.8348                 1.0324                 0.7840

                      7                      8                      9
                      A                      A                      A
 Frequencies --    246.3874               272.0383               292.0792
 Red. masses --      2.3781                 3.5499                 3.4299
 Frc consts  --      0.0851                 0.1548                 0.1724
 IR Inten    --      8.8914                 1.3199                16.4749

                     10                     11                     12
                      A                      A                      A
 Frequencies --    358.6494               390.5122               438.9530
 Red. masses --      1.9360                 2.2671                 4.2610
 Frc consts  --      0.1467                 0.2037                 0.4837
 IR Inten    --      2.5643                12.2293                 4.6482

                     13                     14                     15
                      A                      A                      A
 Frequencies --    449.3327               476.1475               508.3660
 Red. masses --      2.5367                 3.0113                 2.5825
 Frc consts  --      0.3018                 0.4022                 0.3932
 IR Inten    --      2.3436                 0.4393                 2.4135

                     16                     17                     18
                      A                      A                      A
 Frequencies --    524.1219               550.1598               606.0218
 Red. masses --      2.9270                 2.5850                 2.2880
 Frc consts  --      0.4737                 0.4610                 0.4951
 IR Inten    --      5.3918                 3.4935                13.2754

                     19                     20                     21
                      A                      A                      A
 Frequencies --    657.0694               828.9615               831.8964
 Red. masses --      2.6720                 1.5051                 1.8817
 Frc consts  --      0.6797                 0.6094                 0.7673
 IR Inten    --     25.0967                 1.6874                12.1430

                     22                     23                     24
                      A                      A                      A
 Frequencies --    845.5149               864.3158               884.1825
 Red. masses --      2.4442                 2.0887                 1.8823
 Frc consts  --      1.0295                 0.9193                 0.8670
 IR Inten    --     14.8039                15.3775                 8.6949

                     25                     26                     27
                      A                      A                      A
 Frequencies --    902.1288               929.7380               934.0901
 Red. masses --      2.3697                 2.0853                 1.9929
 Frc consts  --      1.1363                 1.0621                 1.0245
 IR Inten    --     32.2604                19.1333                35.5393

                     28                     29                     30
                      A                      A                      A
 Frequencies --    960.5010               991.0657              1000.7618
 Red. masses --      2.1479                 1.7665                 1.4349
 Frc consts  --      1.1675                 1.0223                 0.8467
 IR Inten    --     18.5705                36.7285                22.3278

                     31                     32                     33
                      A                      A                      A
 Frequencies --   1016.8324              1035.1132              1056.2797
 Red. masses --      2.0982                 2.0998                 1.5474
 Frc consts  --      1.2782                 1.3256                 1.0172
 IR Inten    --     12.2369                42.2674               106.6360

                     34                     35                     36
                      A                      A                      A
 Frequencies --   1092.0995              1095.7066              1118.0787
 Red. masses --      2.9826                 2.6561                 4.1499
 Frc consts  --      2.0959                 1.8788                 3.0566
 IR Inten    --     83.6111                15.1110               295.5667

                     37                     38                     39
                      A                      A                      A
 Frequencies --   1129.9825              1155.8592              1173.5810
 Red. masses --      2.9430                 2.3078                 2.5218
 Frc consts  --      2.2140                 1.8166                 2.0464
 IR Inten    --     40.1613                 6.3585                92.9659

                     40                     41                     42
                      A                      A                      A
 Frequencies --   1180.3445              1194.9527              1205.5158
 Red. masses --      2.0278                 1.5905                 1.5575
 Frc consts  --      1.6645                 1.3381                 1.3336
 IR Inten    --     76.1157                66.4663                37.6400

                     43                     44                     45
                      A                      A                      A
 Frequencies --   1224.3406              1239.2025              1270.9044
 Red. masses --      3.6047                 1.6396                 1.3124
 Frc consts  --      3.1837                 1.4835                 1.2489
 IR Inten    --    307.1529                45.3987                21.5971

                     46                     47                     48
                      A                      A                      A
 Frequencies --   1279.0495              1284.5602              1314.1342
 Red. masses --      1.2401                 1.3360                 1.1979
 Frc consts  --      1.1953                 1.2989                 1.2188
 IR Inten    --     14.0690                15.5734                27.6813

                     49                     50                     51
                      A                      A                      A
 Frequencies --   1325.3632              1333.9121              1346.6498
 Red. masses --      1.3870                 1.2979                 1.2672
 Frc consts  --      1.4355                 1.3607                 1.3539
 IR Inten    --      5.4368                 6.3952                 3.8706

                     52                     53                     54
                      A                      A                      A
 Frequencies --   1363.8018              1368.2111              1384.6253
 Red. masses --      1.2194                 1.4328                 1.4930
 Frc consts  --      1.3362                 1.5803                 1.6864
 IR Inten    --     18.2662                 4.3476                 5.9429

                     55                     56                     57
                      A                      A                      A
 Frequencies --   1386.1025              1394.0874              1400.9334
 Red. masses --      1.4574                 1.2672                 1.3890
 Frc consts  --      1.6497                 1.4510                 1.6062
 IR Inten    --      3.7567                40.9496                14.5836

                     58                     59                     60
                      A                      A                      A
 Frequencies --   1408.1862              1421.5899              1430.6257
 Red. masses --      1.4763                 1.3412                 1.3548
 Frc consts  --      1.7248                 1.5970                 1.6338
 IR Inten    --    103.7919                20.4037                 1.4150

                     61                     62                     63
                      A                      A                      A
 Frequencies --   1451.6623              1467.7620              1470.3064
 Red. masses --      1.3845                 1.0996                 1.1113
 Frc consts  --      1.7190                 1.3957                 1.4155
 IR Inten    --      9.9935                 5.3878                 5.4451

                     64                     65                     66
                      A                      A                      A
 Frequencies --   1473.2149              1482.3895              1489.6914
 Red. masses --      1.1176                 1.1367                 1.1331
 Frc consts  --      1.4291                 1.4717                 1.4815
 IR Inten    --      7.7441                10.0309                26.3429

                     67                     68                     69
                      A                      A                      A
 Frequencies --   1499.8853              1505.3202              1508.9507
 Red. masses --      1.0826                 1.0950                 1.1016
 Frc consts  --      1.4349                 1.4619                 1.4778
 IR Inten    --      3.1861                 4.9252                 8.0073

                     70                     71                     72
                      A                      A                      A
 Frequencies --   3009.1575              3035.1838              3036.4814
 Red. masses --      1.0826                 1.0701                 1.0704
 Frc consts  --      5.7758                 5.8080                 5.8148
 IR Inten    --     77.2148                36.6507                93.4022

                     73                     74                     75
                      A                      A                      A
 Frequencies --   3038.3106              3050.0558              3060.1637
 Red. masses --      1.0700                 1.0833                 1.0686
 Frc consts  --      5.8197                 5.9375                 5.8958
 IR Inten    --     79.3258                32.4238                26.0949

                     76                     77                     78
                      A                      A                      A
 Frequencies --   3069.8904              3070.8815              3072.8084
 Red. masses --      1.0617                 1.0616                 1.0617
 Frc consts  --      5.8953                 5.8985                 5.9066
 IR Inten    --     39.2366                20.3741                46.6103

                     79                     80                     81
                      A                      A                      A
 Frequencies --   3077.3274              3118.9876              3122.1133
 Red. masses --      1.0653                 1.0970                 1.1016
 Frc consts  --      5.9440                 6.2874                 6.3265
 IR Inten    --     57.8271                40.5388                61.2202

                     82                     83                     84
                      A                      A                      A
 Frequencies --   3125.1029              3130.0280              3140.7205
 Red. masses --      1.1030                 1.1033                 1.0947
 Frc consts  --      6.3471                 6.3684                 6.3621
 IR Inten    --     47.4716                49.4976                47.1248

                     85                     86                     87
                      A                      A                      A
 Frequencies --   3141.9285              3143.0530              3145.7758
 Red. masses --      1.0961                 1.0960                 1.0995
 Frc consts  --      6.3754                 6.3789                 6.4105
 IR Inten    --     42.2420                36.0384                19.8841

 - Thermochemistry -
 -------------------
 Temperature   298.150 Kelvin.  Pressure   1.00000 Atm.
 Atom     1 has atomic number  6 and mass  12.00000

 Molecular mass:   186.12559 amu.
 Principal axes and moments of inertia in atomic units:
                           1         2         3
     Eigenvalues --   824.396714883.483325450.77743
           X            1.00000   0.00085  -0.00132
           Y           -0.00085   1.00000  -0.00161
           Z            0.00132   0.00161   1.00000
 This molecule is an asymmetric top.
 Rotational symmetry number  1.
 Warning -- assumption of classical behavior for rotation
           may cause significant error
 Rotational temperatures (Kelvin)      0.10506     0.01774     0.01589
 Rotational constants (GHZ):           2.18917     0.36956     0.33110
 Zero-point vibrational energy     736176.0 (Joules/Mol)
                                  175.95028 (Kcal/Mol)
 Warning -- explicit consideration of  18 degrees of freedom as
           vibrations may cause significant error
 Vibrational temperatures:     29.28    87.96   112.18   207.33   325.02
          (Kelvin)            343.56   354.50   391.40   420.24   516.02
                              561.86   631.56   646.49   685.07   731.43
                              754.09   791.56   871.93   945.38  1192.69
                             1196.91  1216.51  1243.56  1272.14  1297.96
                             1337.69  1343.95  1381.95  1425.92  1439.87
                             1462.99  1489.30  1519.75  1571.29  1576.48
                             1608.67  1625.79  1663.02  1688.52  1698.25
                             1719.27  1734.47  1761.55  1782.94  1828.55
                             1840.27  1848.20  1890.75  1906.90  1919.20
                             1937.53  1962.21  1968.55  1992.17  1994.29
                             2005.78  2015.63  2026.07  2045.35  2058.35
                             2088.62  2111.78  2115.44  2119.63  2132.83
                             2143.33  2158.00  2165.82  2171.04  4329.51
                             4366.95  4368.82  4371.45  4388.35  4402.89
                             4416.89  4418.31  4421.09  4427.59  4487.53
                             4492.02  4496.33  4503.41  4518.80  4520.53
                             4522.15  4526.07

 Zero-point correction=                           0.280395 (Hartree/Particle)
 Thermal correction to Energy=                    0.292221
 Thermal correction to Enthalpy=                  0.293165
 Thermal correction to Gibbs Free Energy=         0.241326
 Sum of electronic and zero-point Energies=           -617.228806
 Sum of electronic and thermal Energies=              -617.216980
 Sum of electronic and thermal Enthalpies=            -617.216035
 Sum of electronic and thermal Free Energies=         -617.267874

                     E (Thermal)             CV                S
                      KCal/Mol        Cal/Mol-Kelvin    Cal/Mol-Kelvin
 Total                  183.371             46.878            109.104
 Electronic               0.000              0.000              0.000
 Translational            0.889              2.981             41.570
 Rotational               0.889              2.981             31.462
 Vibrational            181.594             40.917             36.072
 Vibration     1          0.593              1.986              6.600
 Vibration     2          0.597              1.973              4.420
 Vibration     3          0.599              1.964              3.941
 Vibration     4          0.616              1.909              2.749
 Vibration     5          0.650              1.802              1.911
 Vibration     6          0.657              1.781              1.812
 Vibration     7          0.661              1.769              1.756
 Vibration     8          0.675              1.725              1.583
 Vibration     9          0.687              1.688              1.462
 Vibration    10          0.733              1.557              1.128
 Vibration    11          0.758              1.490              0.998
 Vibration    12          0.799              1.385              0.830
 Vibration    13          0.808              1.362              0.798
 Vibration    14          0.833              1.303              0.721
 Vibration    15          0.864              1.231              0.638
 Vibration    16          0.879              1.197              0.600
 Vibration    17          0.905              1.139              0.544
 Vibration    18          0.965              1.019              0.439

 Optimization completed.
    -- Stationary point found.
 Normal termination of Gaussian 16 at Sat Mar  9 17:35:47 2019.
