 Gaussian 16, Revision B.01,
 Gaussian 16:  ES64L-G16RevB.01 20-Dec-2017

 ----------------------------------------------------------------------
 #M062X/6-311++G(2d,2p) opt=ModRedundant freq=noraman SCRF=(SMD,solvent
 =water)
 ----------------------------------------------------------------------

 -------------------------------
 4c1_b1_e3_4c1_PSI.inp_extract_0
 -------------------------------
 Symbolic Z-matrix:
 Charge =  0 Multiplicity = 1

 SCF Done:  E(RM062X) =  -617.508313501     A.U. after   12 cycles
 SCF Done:  E(RM062X) =  -617.509818692     A.U. after   10 cycles
 SCF Done:  E(RM062X) =  -617.509914988     A.U. after    9 cycles
 SCF Done:  E(RM062X) =  -617.509922923     A.U. after    8 cycles
 SCF Done:  E(RM062X) =  -617.509923661     A.U. after    7 cycles
 Optimization completed.
    -- Stationary point found.
 Normal termination of Gaussian 16 at Sat Mar  9 11:36:20 2019.

 ----------------------------------------------------------------------
 #N Geom=AllCheck Guess=TCheck SCRF=Check GenChk RM062X/6-311++G(2d,2p)
  Freq
 ----------------------------------------------------------------------

 Structure from the checkpoint file:  "4c1_b1_e3_4c1_PSI.inp_extract_0.chk"
 -------------------------------
 4c1_b1_e3_4c1_PSI.inp_extract_0
 -------------------------------
 Charge =  0 Multiplicity = 1

                         Standard orientation:
 ---------------------------------------------------------------------
 Center     Atomic      Atomic             Coordinates (Angstroms)
 Number     Number       Type             X           Y           Z
 ---------------------------------------------------------------------
      1          6           0       -1.893230   -1.232008    0.358765
      2          6           0       -3.340770    1.152569   -0.247102
      3          6           0        2.299738   -1.081911   -0.782900
      4          6           0       -1.138683    0.013680   -0.078066
      5          6           0       -2.027051    0.870694   -0.961163
      6          8           0        1.575623    1.052692    0.092730
      7          6           0        3.619066   -0.954986   -0.021126
      8          8           0       -4.005285   -0.053643    0.115623
      9          6           0        3.940333    0.516649    0.228693
     10          6           0        1.214161   -0.313977   -0.061827
     11          6           0        2.754673    1.197797    0.888451
     12          6           0       -3.211715   -0.833813    1.004397
     13          8           0        0.037928   -0.350100   -0.813073
     14          1           0       -2.090087   -1.851017   -0.519305
     15          1           0       -1.298220   -1.813895    1.064415
     16          1           0       -4.024217    1.702689   -0.889757
     17          1           0       -3.159350    1.746029    0.656087
     18          1           0        2.396803   -0.662909   -1.787267
     19          1           0        1.993242   -2.123774   -0.873566
     20          1           0       -0.844914    0.593545    0.801005
     21          1           0       -1.529737    1.810702   -1.202659
     22          1           0       -2.226277    0.336532   -1.893052
     23          1           0        4.421627   -1.440121   -0.574938
     24          1           0        3.529757   -1.470832    0.938654
     25          1           0        4.154291    1.017744   -0.718062
     26          1           0        4.816674    0.623353    0.868613
     27          1           0        1.040260   -0.735455    0.938198
     28          1           0        2.572579    0.767446    1.879692
     29          1           0        2.913005    2.267916    1.001050
     30          1           0       -3.027763   -0.257998    1.918498
     31          1           0       -3.802927   -1.709705    1.261417
 ---------------------------------------------------------------------

 SCF Done:  E(RM062X) =  -617.509923661     A.U. after    1 cycles

 The electronic state is 1-A.
 Alpha  occ. eigenvalues --  -19.63513 -19.62950 -19.62922 -10.63254 -10.58405
 Alpha  occ. eigenvalues --  -10.57633 -10.57620 -10.57494 -10.52548 -10.52479
 Alpha  occ. eigenvalues --  -10.52450 -10.52393 -10.52239  -1.19963  -1.16159
 Alpha  occ. eigenvalues --   -1.13585  -0.90748  -0.89446  -0.86095  -0.84509
 Alpha  occ. eigenvalues --   -0.74671  -0.72676  -0.72532  -0.69962  -0.65928
 Alpha  occ. eigenvalues --   -0.64367  -0.59930  -0.57591  -0.56826  -0.54318
 Alpha  occ. eigenvalues --   -0.54240  -0.52754  -0.51656  -0.50539  -0.50071
 Alpha  occ. eigenvalues --   -0.49384  -0.46271  -0.45576  -0.45246  -0.44222
 Alpha  occ. eigenvalues --   -0.42366  -0.41357  -0.40387  -0.39820  -0.39403
 Alpha  occ. eigenvalues --   -0.39052  -0.37286  -0.36990  -0.34068  -0.33241
 Alpha  occ. eigenvalues --   -0.32539
 Alpha virt. eigenvalues --    0.00491   0.01279   0.01357   0.01440   0.02710
 Alpha virt. eigenvalues --    0.02847   0.02923   0.03979   0.04027   0.04869
 Alpha virt. eigenvalues --    0.05206   0.05383   0.05765   0.05840   0.07240

 Mulliken charges:
               1
     1  C   -0.118617
     2  C   -0.307448
     3  C   -0.204487
     4  C   -0.309706
     5  C   -0.103988
     6  O   -0.409595
     7  C   -0.415019
     8  O   -0.369382
     9  C   -0.342202
    10  C   -0.084791
    11  C   -0.122429
    12  C   -0.350473
    13  O   -0.337456
    14  H    0.203350
    15  H    0.153769
    16  H    0.223159
    17  H    0.158833
    18  H    0.198505
    19  H    0.175675
    20  H    0.293684
    21  H    0.170685
    22  H    0.191580
    23  H    0.202087
    24  H    0.176256
    25  H    0.160059
    26  H    0.182283
    27  H    0.249200
    28  H    0.149822
    29  H    0.204663
    30  H    0.165185
    31  H    0.216799
 Sum of Mulliken charges =  -0.00000

 Dipole moment (field-independent basis, Debye):
    X=              3.3301    Y=             -0.6527    Z=              3.3820  Tot=              4.7910
 Quadrupole moment (field-independent basis, Debye-Ang):
   XX=            -82.5976   YY=            -77.1576   ZZ=            -78.6922
   XY=             -3.2241   XZ=              0.8861   YZ=             -1.2522

  Exact polarizability: 184.270   0.694 173.844   1.667  -0.739 170.567
 Approx polarizability: 146.224   1.209 143.512   2.148  -0.619 142.993

 ******    1 imaginary frequencies (negative Signs) ******

                      1                      2                      3
                      A                      A                      A
 Frequencies --    -18.7701                52.9618                68.8969
 Red. masses --      3.6351                 3.6664                 3.9609
 Frc consts  --      0.0008                 0.0061                 0.0111
 IR Inten    --      0.7002                 1.9096                 0.5379

                      4                      5                      6
                      A                      A                      A
 Frequencies --    146.9551               194.2193               240.7640
 Red. masses --      3.3370                 3.7745                 1.7949
 Frc consts  --      0.0425                 0.0839                 0.0613
 IR Inten    --      6.1930                 3.3928                 1.2642

                      7                      8                      9
                      A                      A                      A
 Frequencies --    243.4689               274.5248               335.5443
 Red. masses --      2.5118                 3.3356                 2.1450
 Frc consts  --      0.0877                 0.1481                 0.1423
 IR Inten    --      6.6622                 2.3415                 8.9060

                     10                     11                     12
                      A                      A                      A
 Frequencies --    360.3847               393.9390               437.7656
 Red. masses --      2.3221                 3.3768                 3.1834
 Frc consts  --      0.1777                 0.3088                 0.3594
 IR Inten    --     14.3743                 9.1967                 5.9079

                     13                     14                     15
                      A                      A                      A
 Frequencies --    442.6569               478.7617               495.2090
 Red. masses --      2.7761                 3.0589                 3.3903
 Frc consts  --      0.3205                 0.4131                 0.4899
 IR Inten    --      1.3610                 0.2464                 1.9116

                     16                     17                     18
                      A                      A                      A
 Frequencies --    516.4989               548.5289               592.6106
 Red. masses --      2.6590                 2.4529                 1.9262
 Frc consts  --      0.4179                 0.4348                 0.3986
 IR Inten    --      3.7624                 1.2913                12.4127

                     19                     20                     21
                      A                      A                      A
 Frequencies --    665.3298               829.7993               830.9407
 Red. masses --      2.8474                 1.4946                 1.8442
 Frc consts  --      0.7426                 0.6063                 0.7502
 IR Inten    --     26.7151                 1.1033                15.7418

                     22                     23                     24
                      A                      A                      A
 Frequencies --    845.5553               862.7949               884.1945
 Red. masses --      2.5684                 2.0914                 1.8752
 Frc consts  --      1.0819                 0.9173                 0.8637
 IR Inten    --     15.2772                10.9333                 7.0031

                     25                     26                     27
                      A                      A                      A
 Frequencies --    899.9694               929.8289               932.5979
 Red. masses --      2.3311                 2.3647                 1.8038
 Frc consts  --      1.1124                 1.2046                 0.9243
 IR Inten    --     30.1244                57.5740                 2.9735

                     28                     29                     30
                      A                      A                      A
 Frequencies --    959.6513               991.8764               999.7443
 Red. masses --      2.1157                 1.7539                 1.4231
 Frc consts  --      1.1480                 1.0167                 0.8380
 IR Inten    --     18.3666                37.8205                15.0278

                     31                     32                     33
                      A                      A                      A
 Frequencies --   1016.4788              1031.4693              1054.6485
 Red. masses --      2.0705                 2.1296                 1.5544
 Frc consts  --      1.2604                 1.3349                 1.0187
 IR Inten    --     17.8501                46.1970               119.1099

                     34                     35                     36
                      A                      A                      A
 Frequencies --   1091.1347              1099.4353              1115.8375
 Red. masses --      2.6921                 3.0186                 4.2201
 Frc consts  --      1.8884                 2.1498                 3.0958
 IR Inten    --     72.4785                35.0649               291.7429

                     37                     38                     39
                      A                      A                      A
 Frequencies --   1131.2265              1155.5252              1170.7291
 Red. masses --      3.2400                 2.3166                 2.4542
 Frc consts  --      2.4428                 1.8225                 1.9818
 IR Inten    --     76.3004                20.9590                84.8385

                     40                     41                     42
                      A                      A                      A
 Frequencies --   1183.1404              1194.5315              1203.2494
 Red. masses --      1.7987                 1.6976                 1.5436
 Frc consts  --      1.4835                 1.4272                 1.3167
 IR Inten    --     50.5368                70.3351                73.1334

                     43                     44                     45
                      A                      A                      A
 Frequencies --   1220.1663              1238.4979              1269.2961
 Red. masses --      3.5076                 1.6310                 1.3131
 Frc consts  --      3.0768                 1.4740                 1.2465
 IR Inten    --    218.7309                39.3451                26.8158

                     46                     47                     48
                      A                      A                      A
 Frequencies --   1277.5183              1284.5268              1313.9973
 Red. masses --      1.2400                 1.3442                 1.1960
 Frc consts  --      1.1924                 1.3068                 1.2166
 IR Inten    --     13.8519                14.7032                25.0032

                     49                     50                     51
                      A                      A                      A
 Frequencies --   1324.4891              1335.0008              1347.9742
 Red. masses --      1.3958                 1.2925                 1.2890
 Frc consts  --      1.4426                 1.3572                 1.3799
 IR Inten    --      8.3961                 6.1049                 1.6332

                     52                     53                     54
                      A                      A                      A
 Frequencies --   1363.6848              1368.1106              1385.1601
 Red. masses --      1.2239                 1.4338                 1.4661
 Frc consts  --      1.3410                 1.5812                 1.6573
 IR Inten    --     15.1360                 2.2901                10.7135

                     55                     56                     57
                      A                      A                      A
 Frequencies --   1387.0414              1392.6699              1400.9258
 Red. masses --      1.3909                 1.2578                 1.4482
 Frc consts  --      1.5766                 1.4373                 1.6746
 IR Inten    --      4.9294                36.5250                12.4720

                     58                     59                     60
                      A                      A                      A
 Frequencies --   1411.8392              1421.4364              1428.3800
 Red. masses --      1.4528                 1.3410                 1.3490
 Frc consts  --      1.7062                 1.5964                 1.6217
 IR Inten    --     89.9164                23.0560                 0.8024

                     61                     62                     63
                      A                      A                      A
 Frequencies --   1448.7286              1465.9511              1469.5266
 Red. masses --      1.4510                 1.1010                 1.1113
 Frc consts  --      1.7943                 1.3941                 1.4139
 IR Inten    --     19.9482                 5.7842                 4.5356

                     64                     65                     66
                      A                      A                      A
 Frequencies --   1474.0023              1480.6666              1491.2327
 Red. masses --      1.1201                 1.1407                 1.1263
 Frc consts  --      1.4339                 1.4734                 1.4757
 IR Inten    --      9.7269                 9.8196                26.3316

                     67                     68                     69
                      A                      A                      A
 Frequencies --   1500.0060              1503.6116              1507.9794
 Red. masses --      1.0829                 1.0960                 1.1012
 Frc consts  --      1.4356                 1.4600                 1.4754
 IR Inten    --      2.8383                 5.0376                 8.1400

                     70                     71                     72
                      A                      A                      A
 Frequencies --   3013.0144              3036.2412              3036.6093
 Red. masses --      1.0829                 1.0701                 1.0701
 Frc consts  --      5.7919                 5.8124                 5.8138
 IR Inten    --     66.2090                40.6811                57.4001

                     73                     74                     75
                      A                      A                      A
 Frequencies --   3036.7992              3061.3375              3065.6435
 Red. masses --      1.0702                 1.0686                 1.0773
 Frc consts  --      5.8152                 5.9004                 5.9652
 IR Inten    --    115.5384                23.5032                 1.2641

                     76                     77                     78
                      A                      A                      A
 Frequencies --   3069.7402              3070.2146              3072.4001
 Red. masses --      1.0603                 1.0617                 1.0612
 Frc consts  --      5.8870                 5.8964                 5.9022
 IR Inten    --     15.5519                36.8907                47.0689

                     79                     80                     81
                      A                      A                      A
 Frequencies --   3075.6717              3119.4696              3121.2436
 Red. masses --      1.0678                 1.0972                 1.1042
 Frc consts  --      5.9516                 6.2905                 6.3381
 IR Inten    --     66.7728                40.7583                41.3193

                     82                     83                     84
                      A                      A                      A
 Frequencies --   3122.5636              3125.6669              3128.2469
 Red. masses --      1.1012                 1.1036                 1.1041
 Frc consts  --      6.3261                 6.3523                 6.3658
 IR Inten    --     57.0917                50.3520                53.6023

                     85                     86                     87
                      A                      A                      A
 Frequencies --   3141.2445              3141.7855              3143.4479
 Red. masses --      1.0960                 1.0954                 1.0961
 Frc consts  --      6.3716                 6.3705                 6.3811
 IR Inten    --     41.3034                40.8120                33.6683

 - Thermochemistry -
 -------------------
 Temperature   298.150 Kelvin.  Pressure   1.00000 Atm.
 Atom     1 has atomic number  6 and mass  12.00000

 Molecular mass:   186.12559 amu.
 Principal axes and moments of inertia in atomic units:
                           1         2         3
     Eigenvalues --   835.665885072.730735340.32701
           X            0.99999  -0.00438   0.00064
           Y            0.00439   0.99990  -0.01362
           Z           -0.00058   0.01362   0.99991
 This molecule is an asymmetric top.
 Rotational symmetry number  1.
 Warning -- assumption of classical behavior for rotation
           may cause significant error
 Rotational temperatures (Kelvin)      0.10365     0.01707     0.01622
 Rotational constants (GHZ):           2.15964     0.35577     0.33795
    1 imaginary frequencies ignored.
 Zero-point vibrational energy     735686.3 (Joules/Mol)
                                  175.83324 (Kcal/Mol)
 Warning -- explicit consideration of  17 degrees of freedom as
           vibrations may cause significant error
 Vibrational temperatures:     76.20    99.13   211.44   279.44   346.41
          (Kelvin)            350.30   394.98   482.77   518.51   566.79
                              629.85   636.88   688.83   712.50   743.13
                              789.21   852.63   957.26  1193.90  1195.54
                             1216.57  1241.37  1272.16  1294.86  1337.82
                             1341.80  1380.72  1427.09  1438.41  1462.49
                             1484.05  1517.40  1569.90  1581.84  1605.44
                             1627.58  1662.54  1684.42  1702.28  1718.66
                             1731.21  1755.55  1781.92  1826.23  1838.06
                             1848.15  1890.55  1905.64  1920.77  1939.43
                             1962.04  1968.41  1992.94  1995.64  2003.74
                             2015.62  2031.32  2045.13  2055.12  2084.40
                             2109.18  2114.32  2120.76  2130.35  2145.55
                             2158.17  2163.36  2169.65  4335.06  4368.47
                             4369.00  4369.28  4404.58  4410.78  4416.67
                             4417.35  4420.50  4425.21  4488.22  4490.77
                             4492.67  4497.14  4500.85  4519.55  4520.33
                             4522.72

 Zero-point correction=                           0.280208 (Hartree/Particle)
 Thermal correction to Energy=                    0.291181
 Thermal correction to Enthalpy=                  0.292126
 Thermal correction to Gibbs Free Energy=         0.243124
 Sum of electronic and zero-point Energies=           -617.229716
 Sum of electronic and thermal Energies=              -617.218742
 Sum of electronic and thermal Enthalpies=            -617.217798
 Sum of electronic and thermal Free Energies=         -617.266799

                     E (Thermal)             CV                S
                      KCal/Mol        Cal/Mol-Kelvin    Cal/Mol-Kelvin
 Total                  182.719             44.940            103.131
 Electronic               0.000              0.000              0.000
 Translational            0.889              2.981             41.570
 Rotational               0.889              2.981             31.493
 Vibrational            180.942             38.979             30.068
 Vibration     1          0.596              1.976              4.704
 Vibration     2          0.598              1.969              4.185
 Vibration     3          0.617              1.906              2.711
 Vibration     4          0.635              1.848              2.187
 Vibration     5          0.658              1.778              1.797
 Vibration     6          0.659              1.774              1.777
 Vibration     7          0.677              1.720              1.568
 Vibration     8          0.717              1.605              1.233
 Vibration     9          0.735              1.554              1.120
 Vibration    10          0.761              1.483              0.985
 Vibration    11          0.798              1.388              0.834
 Vibration    12          0.802              1.377              0.818
 Vibration    13          0.835              1.297              0.713
 Vibration    14          0.851              1.261              0.670
 Vibration    15          0.872              1.213              0.618
 Vibration    16          0.904              1.143              0.547
 Vibration    17          0.950              1.048              0.463

                           ! Non-Optimized Parameters !
 Normal termination of Gaussian 16 at Sat Mar  9 12:37:07 2019.
