 Gaussian 16, Revision B.01,
 Gaussian 16:  ES64L-G16RevB.01 20-Dec-2017

 ----------------------------------------------------------------------
 #M062X/6-311++G(2d,2p) opt=ModRedundant freq=noraman SCRF=(SMD,solvent
 =water)
 ----------------------------------------------------------------------

 --------------------------------
 4c1_b1_e3_4c1_PSI.inp_extract_16
 --------------------------------
 Symbolic Z-matrix:
 Charge =  0 Multiplicity = 1

 SCF Done:  E(RM062X) =  -617.502690001     A.U. after   12 cycles
 SCF Done:  E(RM062X) =  -617.504130751     A.U. after   10 cycles
 SCF Done:  E(RM062X) =  -617.504375217     A.U. after   11 cycles
 SCF Done:  E(RM062X) =  -617.504498161     A.U. after   10 cycles
 SCF Done:  E(RM062X) =  -617.504505773     A.U. after    8 cycles
 SCF Done:  E(RM062X) =  -617.504506419     A.U. after    8 cycles
 Optimization completed.
    -- Stationary point found.
 Normal termination of Gaussian 16 at Sat Mar  9 15:22:51 2019.

 ----------------------------------------------------------------------
 #N Geom=AllCheck Guess=TCheck SCRF=Check GenChk RM062X/6-311++G(2d,2p)
  Freq
 ----------------------------------------------------------------------

 Structure from the checkpoint file:  "4c1_b1_e3_4c1_PSI.inp_extract_16.chk"
 --------------------------------
 4c1_b1_e3_4c1_PSI.inp_extract_16
 --------------------------------
 Charge =  0 Multiplicity = 1

                         Standard orientation:
 ---------------------------------------------------------------------
 Center     Atomic      Atomic             Coordinates (Angstroms)
 Number     Number       Type             X           Y           Z
 ---------------------------------------------------------------------
      1          6           0       -2.180789   -1.049870   -0.794698
      2          6           0       -2.844355    1.158511    0.856421
      3          6           0        2.391941   -1.277857    0.391263
      4          6           0       -1.255280   -0.666913    0.348473
      5          6           0       -1.378954    0.831717    0.598198
      6          8           0        1.334578    0.563734   -0.757393
      7          6           0        3.651272   -0.436975    0.600401
      8          8           0       -3.668192    0.790839   -0.243636
      9          6           0        3.744752    0.644624   -0.473208
     10          6           0        1.177635   -0.376091    0.299093
     11          6           0        2.446968    1.430680   -0.526119
     12          6           0       -3.602701   -0.610391   -0.487138
     13          8           0        0.057501   -1.155352    0.011120
     14          1           0       -1.832474   -0.560315   -1.706912
     15          1           0       -2.159622   -2.128686   -0.953769
     16          1           0       -2.977223    2.228283    0.999874
     17          1           0       -3.195225    0.640788    1.756261
     18          1           0        2.460799   -1.844722   -0.540263
     19          1           0        2.246177   -1.981221    1.210815
     20          1           0       -1.567426   -1.191466    1.257244
     21          1           0       -0.800215    1.150660    1.464427
     22          1           0       -1.035944    1.388798   -0.273562
     23          1           0        4.535297   -1.073261    0.589754
     24          1           0        3.605691    0.037384    1.584382
     25          1           0        3.920106    0.186947   -1.449440
     26          1           0        4.570634    1.327317   -0.271234
     27          1           0        1.049003    0.176279    1.236277
     28          1           0        2.289907    1.969841    0.415342
     29          1           0        2.442982    2.151483   -1.340670
     30          1           0       -3.982380   -1.144426    0.391142
     31          1           0       -4.264124   -0.812073   -1.326507
 ---------------------------------------------------------------------

 SCF Done:  E(RM062X) =  -617.504506419     A.U. after    1 cycles

 The electronic state is 1-A.
 Alpha  occ. eigenvalues --  -19.63349 -19.62915 -19.62762 -10.63140 -10.58669
 Alpha  occ. eigenvalues --  -10.57691 -10.57594 -10.57430 -10.52598 -10.52488
 Alpha  occ. eigenvalues --  -10.52442 -10.52353 -10.52200  -1.19578  -1.16211
 Alpha  occ. eigenvalues --   -1.13374  -0.90763  -0.89365  -0.86199  -0.84579
 Alpha  occ. eigenvalues --   -0.74962  -0.73014  -0.72282  -0.69575  -0.65277
 Alpha  occ. eigenvalues --   -0.65035  -0.59702  -0.57274  -0.56139  -0.54427
 Alpha  occ. eigenvalues --   -0.54215  -0.52640  -0.52493  -0.51280  -0.49731
 Alpha  occ. eigenvalues --   -0.49169  -0.46501  -0.45680  -0.44586  -0.43808
 Alpha  occ. eigenvalues --   -0.43023  -0.41290  -0.40485  -0.39782  -0.39295
 Alpha  occ. eigenvalues --   -0.38259  -0.37234  -0.36599  -0.34792  -0.32920
 Alpha  occ. eigenvalues --   -0.32157
 Alpha virt. eigenvalues --    0.00492   0.01259   0.01405   0.01453   0.02696
 Alpha virt. eigenvalues --    0.02876   0.02966   0.03928   0.04026   0.04924
 Alpha virt. eigenvalues --    0.05171   0.05343   0.05855   0.06059   0.07436

 Mulliken charges:
               1
     1  C   -0.163967
     2  C   -0.486754
     3  C   -0.263567
     4  C   -0.236072
     5  C   -0.130650
     6  O   -0.399164
     7  C   -0.401572
     8  O   -0.365520
     9  C   -0.396505
    10  C    0.118264
    11  C   -0.124452
    12  C   -0.259715
    13  O   -0.415069
    14  H    0.184844
    15  H    0.182710
    16  H    0.209071
    17  H    0.175832
    18  H    0.193424
    19  H    0.176809
    20  H    0.276372
    21  H    0.175025
    22  H    0.248550
    23  H    0.202569
    24  H    0.172095
    25  H    0.161885
    26  H    0.182619
    27  H    0.249310
    28  H    0.163257
    29  H    0.197711
    30  H    0.161789
    31  H    0.210872
 Sum of Mulliken charges =   0.00000

 Dipole moment (field-independent basis, Debye):
    X=              2.4635    Y=              0.3525    Z=              3.6336  Tot=              4.4041
 Quadrupole moment (field-independent basis, Debye-Ang):
   XX=            -76.9181   YY=            -79.2954   ZZ=            -78.5800
   XY=              8.8670   XZ=             -1.8107   YZ=              1.8887

  Exact polarizability: 184.786   3.960 174.753  -0.548   1.534 168.972
 Approx polarizability: 146.041   2.710 144.568   0.042   0.755 142.605

 ******    1 imaginary frequencies (negative Signs) ******

                      1                      2                      3
                      A                      A                      A
 Frequencies --    -57.4066                67.8414                82.0335
 Red. masses --      3.4785                 3.9469                 3.7813
 Frc consts  --      0.0068                 0.0107                 0.0150
 IR Inten    --      1.5680                 0.9208                 1.8732

                      4                      5                      6
                      A                      A                      A
 Frequencies --    157.4158               193.2060               243.2841
 Red. masses --      3.6848                 3.3533                 1.8446
 Frc consts  --      0.0538                 0.0738                 0.0643
 IR Inten    --     14.1021                 2.1462                 3.9510

                      7                      8                      9
                      A                      A                      A
 Frequencies --    248.5412               277.5652               319.4068
 Red. masses --      2.5112                 3.3345                 3.1146
 Frc consts  --      0.0914                 0.1514                 0.1872
 IR Inten    --      5.8948                 3.0678                 6.3389

                     10                     11                     12
                      A                      A                      A
 Frequencies --    360.8025               381.3428               433.2187
 Red. masses --      2.1482                 2.3261                 3.6788
 Frc consts  --      0.1648                 0.1993                 0.4068
 IR Inten    --      2.4391                10.3487                 2.4347

                     13                     14                     15
                      A                      A                      A
 Frequencies --    458.6038               474.2359               489.7762
 Red. masses --      2.4502                 3.1883                 3.0281
 Frc consts  --      0.3036                 0.4225                 0.4280
 IR Inten    --      2.8322                 1.3795                 1.8288

                     16                     17                     18
                      A                      A                      A
 Frequencies --    527.3721               547.7177               603.5460
 Red. masses --      2.5409                 2.7093                 2.2910
 Frc consts  --      0.4164                 0.4789                 0.4917
 IR Inten    --      4.1832                 0.5707                 8.2349

                     19                     20                     21
                      A                      A                      A
 Frequencies --    654.0117               831.4319               834.5853
 Red. masses --      2.6738                 1.6229                 1.6343
 Frc consts  --      0.6738                 0.6610                 0.6707
 IR Inten    --     38.8062                 5.1632                 9.2894

                     22                     23                     24
                      A                      A                      A
 Frequencies --    840.0889               863.9918               879.2943
 Red. masses --      2.6570                 1.9409                 2.0804
 Frc consts  --      1.1048                 0.8536                 0.9477
 IR Inten    --      9.3361                16.9819                29.3054

                     25                     26                     27
                      A                      A                      A
 Frequencies --    902.8935               928.7725               939.3303
 Red. masses --      2.3927                 2.4030                 1.7586
 Frc consts  --      1.1493                 1.2213                 0.9142
 IR Inten    --     35.3415                40.3219                 8.3843

                     28                     29                     30
                      A                      A                      A
 Frequencies --    957.6705               986.6981              1004.9540
 Red. masses --      2.1962                 1.7935                 1.5091
 Frc consts  --      1.1868                 1.0288                 0.8980
 IR Inten    --      8.6720                50.9686                32.4119

                     31                     32                     33
                      A                      A                      A
 Frequencies --   1015.6068              1039.1533              1054.9008
 Red. masses --      2.0390                 2.2176                 1.5652
 Frc consts  --      1.2391                 1.4109                 1.0263
 IR Inten    --      4.9272                30.8543               106.7282

                     34                     35                     36
                      A                      A                      A
 Frequencies --   1082.3922              1096.3908              1114.4277
 Red. masses --      3.1014                 2.4703                 3.9906
 Frc consts  --      2.1408                 1.7495                 2.9201
 IR Inten    --     49.1396                42.0439               296.8249

                     37                     38                     39
                      A                      A                      A
 Frequencies --   1130.9842              1157.4705              1168.8891
 Red. masses --      3.0457                 2.3228                 2.6712
 Frc consts  --      2.2953                 1.8335                 2.1503
 IR Inten    --     48.3846                16.2166                24.4343

                     40                     41                     42
                      A                      A                      A
 Frequencies --   1186.8029              1193.0842              1203.8920
 Red. masses --      2.3433                 1.4002                 1.6099
 Frc consts  --      1.9446                 1.1743                 1.3747
 IR Inten    --     95.0349                23.5208               116.5479

                     43                     44                     45
                      A                      A                      A
 Frequencies --   1218.4365              1238.0379              1274.2411
 Red. masses --      3.1226                 1.6475                 1.3066
 Frc consts  --      2.7314                 1.4878                 1.2499
 IR Inten    --    306.4619                37.1105                 7.8054

                     46                     47                     48
                      A                      A                      A
 Frequencies --   1279.6626              1280.2794              1314.4921
 Red. masses --      1.2492                 1.2426                 1.1924
 Frc consts  --      1.2053                 1.2001                 1.2139
 IR Inten    --     13.5716                 2.5750                29.6045

                     49                     50                     51
                      A                      A                      A
 Frequencies --   1324.0480              1341.1557              1353.8568
 Red. masses --      1.3636                 1.3368                 1.2864
 Frc consts  --      1.4085                 1.4167                 1.3892
 IR Inten    --     29.1937                13.4888                 1.6454

                     52                     53                     54
                      A                      A                      A
 Frequencies --   1363.2037              1367.2892              1385.3087
 Red. masses --      1.2318                 1.4266                 1.5093
 Frc consts  --      1.3487                 1.5714                 1.7065
 IR Inten    --     11.6066                 0.0973                 8.3416

                     55                     56                     57
                      A                      A                      A
 Frequencies --   1389.8089              1391.1080              1405.8822
 Red. masses --      1.2371                 1.3040                 1.4845
 Frc consts  --      1.4079                 1.4868                 1.7288
 IR Inten    --     40.6095                12.1630                23.6992

                     58                     59                     60
                      A                      A                      A
 Frequencies --   1414.3017              1421.8703              1429.9981
 Red. masses --      1.4326                 1.3393                 1.3352
 Frc consts  --      1.6884                 1.5954                 1.6087
 IR Inten    --     19.3731                30.7466                 8.8819

                     61                     62                     63
                      A                      A                      A
 Frequencies --   1448.5665              1467.6138              1473.3541
 Red. masses --      1.4558                 1.1010                 1.1231
 Frc consts  --      1.7998                 1.3972                 1.4365
 IR Inten    --     36.5949                 5.0950                 2.9928

                     64                     65                     66
                      A                      A                      A
 Frequencies --   1474.3475              1481.2936              1489.8631
 Red. masses --      1.0932                 1.1204                 1.1251
 Frc consts  --      1.4001                 1.4484                 1.4714
 IR Inten    --      9.2918                 9.2535                25.2645

                     67                     68                     69
                      A                      A                      A
 Frequencies --   1500.3828              1505.4750              1509.4162
 Red. masses --      1.0832                 1.0962                 1.1022
 Frc consts  --      1.4368                 1.4638                 1.4795
 IR Inten    --      3.2344                 5.5236                 7.6741

                     70                     71                     72
                      A                      A                      A
 Frequencies --   3032.9002              3036.0679              3036.6348
 Red. masses --      1.0704                 1.0700                 1.0704
 Frc consts  --      5.8010                 5.8110                 5.8156
 IR Inten    --     64.6319                45.1812                78.5154

                     73                     74                     75
                      A                      A                      A
 Frequencies --   3044.8284              3049.3528              3060.4120
 Red. masses --      1.0830                 1.0821                 1.0684
 Frc consts  --      5.9159                 5.9283                 5.8961
 IR Inten    --     85.2033                48.1065                25.3947

                     76                     77                     78
                      A                      A                      A
 Frequencies --   3069.0349              3071.3435              3071.5304
 Red. masses --      1.0617                 1.0615                 1.0615
 Frc consts  --      5.8919                 5.8997                 5.9004
 IR Inten    --     37.0919                18.2104                72.9637

                     79                     80                     81
                      A                      A                      A
 Frequencies --   3093.5079              3117.5324              3120.8603
 Red. masses --      1.0594                 1.0968                 1.1021
 Frc consts  --      5.9732                 6.2806                 6.3245
 IR Inten    --     21.2397                40.2269                61.4534

                     82                     83                     84
                      A                      A                      A
 Frequencies --   3123.9824              3128.3275              3140.7820
 Red. masses --      1.1036                 1.1034                 1.0956
 Frc consts  --      6.3454                 6.3620                 6.3678
 IR Inten    --     48.7862                52.3602                65.6146

                     85                     86                     87
                      A                      A                      A
 Frequencies --   3141.0236              3142.5353              3145.7536
 Red. masses --      1.0956                 1.0966                 1.1044
 Frc consts  --      6.3686                 6.3804                 6.4391
 IR Inten    --     33.5905                14.8379                38.1194

 - Thermochemistry -
 -------------------
 Temperature   298.150 Kelvin.  Pressure   1.00000 Atm.
 Atom     1 has atomic number  6 and mass  12.00000

 Molecular mass:   186.12559 amu.
 Principal axes and moments of inertia in atomic units:
                           1         2         3
     Eigenvalues --   876.040324688.256435047.59979
           X            0.99998   0.00698  -0.00006
           Y           -0.00697   0.99971   0.02293
           Z            0.00022  -0.02293   0.99974
 This molecule is an asymmetric top.
 Rotational symmetry number  1.
 Warning -- assumption of classical behavior for rotation
           may cause significant error
 Rotational temperatures (Kelvin)      0.09887     0.01847     0.01716
 Rotational constants (GHZ):           2.06011     0.38495     0.35754
    1 imaginary frequencies ignored.
 Zero-point vibrational energy     736321.4 (Joules/Mol)
                                  175.98505 (Kcal/Mol)
 Warning -- explicit consideration of  17 degrees of freedom as
           vibrations may cause significant error
 Vibrational temperatures:     97.61   118.03   226.49   277.98   350.03
          (Kelvin)            357.60   399.35   459.56   519.11   548.67
                              623.31   659.83   682.32   704.68   758.77
                              788.04   868.37   940.98  1196.25  1200.78
                             1208.70  1243.09  1265.11  1299.06  1336.30
                             1351.49  1377.87  1419.64  1445.90  1461.23
                             1495.11  1517.77  1557.32  1577.46  1603.41
                             1627.23  1665.34  1681.77  1707.54  1716.58
                             1732.13  1753.06  1781.26  1833.35  1841.15
                             1842.04  1891.26  1905.01  1929.62  1947.90
                             1961.35  1967.22  1993.15  1999.63  2001.49
                             2022.75  2034.86  2045.75  2057.45  2084.16
                             2111.57  2119.83  2121.26  2131.25  2143.58
                             2158.72  2166.04  2171.71  4363.67  4368.22
                             4369.04  4380.83  4387.34  4403.25  4415.66
                             4418.98  4419.25  4450.87  4485.43  4490.22
                             4494.71  4500.97  4518.88  4519.23  4521.41
                             4526.04

 Zero-point correction=                           0.280450 (Hartree/Particle)
 Thermal correction to Energy=                    0.291355
 Thermal correction to Enthalpy=                  0.292299
 Thermal correction to Gibbs Free Energy=         0.243785
 Sum of electronic and zero-point Energies=           -617.224056
 Sum of electronic and thermal Energies=              -617.213151
 Sum of electronic and thermal Enthalpies=            -617.212207
 Sum of electronic and thermal Free Energies=         -617.260721

                     E (Thermal)             CV                S
                      KCal/Mol        Cal/Mol-Kelvin    Cal/Mol-Kelvin
 Total                  182.828             44.918            102.107
 Electronic               0.000              0.000              0.000
 Translational            0.889              2.981             41.570
 Rotational               0.889              2.981             31.406
 Vibrational            181.051             38.956             29.132
 Vibration     1          0.598              1.970              4.215
 Vibration     2          0.600              1.961              3.842
 Vibration     3          0.621              1.894              2.581
 Vibration     4          0.635              1.849              2.197
 Vibration     5          0.659              1.774              1.779
 Vibration     6          0.662              1.765              1.741
 Vibration     7          0.679              1.715              1.549
 Vibration     8          0.705              1.636              1.313
 Vibration     9          0.735              1.553              1.119
 Vibration    10          0.751              1.510              1.034
 Vibration    11          0.794              1.398              0.848
 Vibration    12          0.817              1.342              0.770
 Vibration    13          0.831              1.307              0.726
 Vibration    14          0.846              1.273              0.684
 Vibration    15          0.882              1.189              0.593
 Vibration    16          0.903              1.145              0.549
 Vibration    17          0.962              1.024              0.444

 Optimization completed.
    -- Stationary point found.
 Normal termination of Gaussian 16 at Sat Mar  9 16:25:36 2019.
