 Gaussian 16, Revision B.01,
 Gaussian 16:  ES64L-G16RevB.01 20-Dec-2017

 ----------------------------------------------------------------------
 #M062X/6-311++G(2d,2p) opt=ModRedundant freq=noraman SCRF=(SMD,solvent
 =water)
 ----------------------------------------------------------------------

 --------------------------------
 4c1_b1_e3_4c1_PSI.inp_extract_23
 --------------------------------
 Symbolic Z-matrix:
 Charge =  0 Multiplicity = 1

 SCF Done:  E(RM062X) =  -617.507940288     A.U. after   12 cycles
 SCF Done:  E(RM062X) =  -617.509444246     A.U. after   10 cycles
 SCF Done:  E(RM062X) =  -617.509543441     A.U. after    9 cycles
 SCF Done:  E(RM062X) =  -617.509552609     A.U. after    8 cycles
 SCF Done:  E(RM062X) =  -617.509553376     A.U. after    7 cycles
 Optimization completed.
    -- Stationary point found.
 Normal termination of Gaussian 16 at Sat Mar  9 16:46:44 2019.

 ----------------------------------------------------------------------
 #N Geom=AllCheck Guess=TCheck SCRF=Check GenChk RM062X/6-311++G(2d,2p)
  Freq
 ----------------------------------------------------------------------

 Structure from the checkpoint file:  "4c1_b1_e3_4c1_PSI.inp_extract_23.chk"
 --------------------------------
 4c1_b1_e3_4c1_PSI.inp_extract_23
 --------------------------------
 Charge =  0 Multiplicity = 1

                         Standard orientation:
 ---------------------------------------------------------------------
 Center     Atomic      Atomic             Coordinates (Angstroms)
 Number     Number       Type             X           Y           Z
 ---------------------------------------------------------------------
      1          6           0       -2.035151   -1.292899    0.293766
      2          6           0       -3.198617    1.264556   -0.221013
      3          6           0        2.337127   -1.169203   -0.656739
      4          6           0       -1.135543   -0.107788   -0.014597
      5          6           0       -1.877516    0.896102   -0.879737
      6          8           0        1.520948    1.003962    0.022485
      7          6           0        3.663997   -0.900136    0.053442
      8          8           0       -4.000707    0.111540    0.014400
      9          6           0        3.912838    0.603550    0.146550
     10          6           0        1.228628   -0.387899    0.013492
     11          6           0        2.707875    1.287301    0.767250
     12          6           0       -3.346751   -0.802939    0.888625
     13          8           0        0.041312   -0.560327   -0.698628
     14          1           0       -2.235552   -1.835950   -0.632595
     15          1           0       -1.544071   -1.972309    0.991927
     16          1           0       -3.782760    1.924535   -0.858206
     17          1           0       -3.016502    1.773482    0.732322
     18          1           0        2.390952   -0.848244   -1.699680
     19          1           0        2.084405   -2.229032   -0.635887
     20          1           0       -0.839893    0.376592    0.919964
     21          1           0       -1.274394    1.793025   -1.024510
     22          1           0       -2.070689    0.449124   -1.857611
     23          1           0        4.478653   -1.397719   -0.470875
     24          1           0        3.622916   -1.320302    1.061882
     25          1           0        4.079144    1.016520   -0.850961
     26          1           0        4.796284    0.818107    0.748498
     27          1           0        1.097721   -0.714419    1.054827
     28          1           0        2.570489    0.949565    1.800686
     29          1           0        2.812089    2.369879    0.769090
     30          1           0       -3.165394   -0.310172    1.850554
     31          1           0       -4.037139   -1.627955    1.048279
 ---------------------------------------------------------------------

 SCF Done:  E(RM062X) =  -617.509553376     A.U. after    1 cycles

 The electronic state is 1-A.
 Alpha  occ. eigenvalues --  -19.63474 -19.62955 -19.62913 -10.63274 -10.58406
 Alpha  occ. eigenvalues --  -10.57612 -10.57606 -10.57485 -10.52550 -10.52447
 Alpha  occ. eigenvalues --  -10.52412 -10.52404 -10.52237  -1.19965  -1.16148
 Alpha  occ. eigenvalues --   -1.13559  -0.90775  -0.89423  -0.86076  -0.84495
 Alpha  occ. eigenvalues --   -0.74662  -0.72790  -0.72371  -0.69989  -0.66024
 Alpha  occ. eigenvalues --   -0.64274  -0.59932  -0.57615  -0.56789  -0.54312
 Alpha  occ. eigenvalues --   -0.54229  -0.52771  -0.51600  -0.50670  -0.49848
 Alpha  occ. eigenvalues --   -0.49412  -0.46187  -0.45583  -0.45348  -0.44201
 Alpha  occ. eigenvalues --   -0.42373  -0.41235  -0.40454  -0.39809  -0.39428
 Alpha  occ. eigenvalues --   -0.39048  -0.37266  -0.36964  -0.33959  -0.33322
 Alpha  occ. eigenvalues --   -0.32501
 Alpha virt. eigenvalues --    0.00500   0.01264   0.01353   0.01449   0.02697
 Alpha virt. eigenvalues --    0.02847   0.02942   0.03987   0.04026   0.04846
 Alpha virt. eigenvalues --    0.05149   0.05514   0.05749   0.05811   0.07295

 Mulliken charges:
               1
     1  C   -0.111163
     2  C   -0.298424
     3  C   -0.225797
     4  C   -0.228985
     5  C   -0.158613
     6  O   -0.418362
     7  C   -0.419490
     8  O   -0.371995
     9  C   -0.334152
    10  C   -0.070425
    11  C   -0.140039
    12  C   -0.347437
    13  O   -0.339645
    14  H    0.199876
    15  H    0.155776
    16  H    0.220411
    17  H    0.158868
    18  H    0.197524
    19  H    0.180084
    20  H    0.283997
    21  H    0.175169
    22  H    0.190606
    23  H    0.202643
    24  H    0.175352
    25  H    0.159321
    26  H    0.181753
    27  H    0.243482
    28  H    0.151372
    29  H    0.203048
    30  H    0.162908
    31  H    0.222337
 Sum of Mulliken charges =  -0.00000

 Dipole moment (field-independent basis, Debye):
    X=              3.4637    Y=             -0.4260    Z=              3.5358  Tot=              4.9680
 Quadrupole moment (field-independent basis, Debye-Ang):
   XX=            -82.4348   YY=            -76.7362   ZZ=            -78.7502
   XY=             -1.0150   XZ=             -0.1661   YZ=             -1.4119

  Exact polarizability: 184.023   1.488 174.899   1.135  -0.623 169.727
 Approx polarizability: 146.083   1.559 143.896   1.947  -0.448 142.723

 ******    1 imaginary frequencies (negative Signs) ******

                      1                      2                      3
                      A                      A                      A
 Frequencies --    -14.7577                58.6152                73.9505
 Red. masses --      3.7914                 3.5027                 4.0476
 Frc consts  --      0.0005                 0.0071                 0.0130
 IR Inten    --      0.3868                 1.8378                 0.2795

                      4                      5                      6
                      A                      A                      A
 Frequencies --    148.0682               202.4020               242.3483
 Red. masses --      3.3015                 3.7355                 1.8108
 Frc consts  --      0.0426                 0.0902                 0.0627
 IR Inten    --      5.5403                 2.7183                 1.4737

                      7                      8                      9
                      A                      A                      A
 Frequencies --    245.3012               275.2686               331.5091
 Red. masses --      2.5669                 3.2006                 2.5747
 Frc consts  --      0.0910                 0.1429                 0.1667
 IR Inten    --      6.1662                 2.3576                13.7221

                     10                     11                     12
                      A                      A                      A
 Frequencies --    361.4125               393.0305               439.0725
 Red. masses --      2.1692                 2.8305                 3.5723
 Frc consts  --      0.1669                 0.2576                 0.4058
 IR Inten    --      9.3801                11.0210                 6.2453

                     13                     14                     15
                      A                      A                      A
 Frequencies --    443.0643               479.2645               500.3727
 Red. masses --      2.6207                 3.0689                 3.1822
 Frc consts  --      0.3031                 0.4153                 0.4694
 IR Inten    --      0.4787                 0.3251                 2.0057

                     16                     17                     18
                      A                      A                      A
 Frequencies --    521.0385               549.1259               597.6260
 Red. masses --      2.7670                 2.4982                 1.9973
 Frc consts  --      0.4426                 0.4438                 0.4203
 IR Inten    --      4.4939                 2.4574                11.9946

                     19                     20                     21
                      A                      A                      A
 Frequencies --    663.3510               829.7600               830.7217
 Red. masses --      2.7725                 1.4827                 1.8922
 Frc consts  --      0.7188                 0.6015                 0.7694
 IR Inten    --     26.1437                 2.3648                14.3187

                     22                     23                     24
                      A                      A                      A
 Frequencies --    846.6345               863.7601               884.5720
 Red. masses --      2.5184                 2.1012                 1.8876
 Frc consts  --      1.0636                 0.9237                 0.8702
 IR Inten    --     14.8002                12.4943                 7.8517

                     25                     26                     27
                      A                      A                      A
 Frequencies --    902.0994               929.9350               932.5064
 Red. masses --      2.2997                 2.2560                 1.8689
 Frc consts  --      1.1026                 1.1495                 0.9575
 IR Inten    --     29.9213                46.6622                11.5789

                     28                     29                     30
                      A                      A                      A
 Frequencies --    960.6284               991.8997               998.8613
 Red. masses --      2.1370                 1.7813                 1.3965
 Frc consts  --      1.1619                 1.0326                 0.8209
 IR Inten    --     18.0784                33.0360                22.0631

                     31                     32                     33
                      A                      A                      A
 Frequencies --   1016.4203              1031.7590              1055.0911
 Red. masses --      2.0849                 2.1274                 1.5592
 Frc consts  --      1.2691                 1.3343                 1.0227
 IR Inten    --     16.2260                44.7462               117.8264

                     34                     35                     36
                      A                      A                      A
 Frequencies --   1092.6447              1099.0659              1116.1539
 Red. masses --      2.7844                 2.9005                 4.2360
 Frc consts  --      1.9585                 2.0643                 3.1092
 IR Inten    --     73.8845                27.4184               294.5850

                     37                     38                     39
                      A                      A                      A
 Frequencies --   1131.5319              1155.6984              1172.7317
 Red. masses --      3.2142                 2.3006                 2.3695
 Frc consts  --      2.4247                 1.8104                 1.9200
 IR Inten    --     71.0799                14.8626                85.1680

                     40                     41                     42
                      A                      A                      A
 Frequencies --   1184.0560              1194.7268              1204.1855
 Red. masses --      1.8808                 1.7588                 1.4855
 Frc consts  --      1.5536                 1.4791                 1.2691
 IR Inten    --     64.8693                85.5057                43.8055

                     43                     44                     45
                      A                      A                      A
 Frequencies --   1221.3532              1238.5664              1269.0973
 Red. masses --      3.5395                 1.6268                 1.3148
 Frc consts  --      3.1108                 1.4704                 1.2477
 IR Inten    --    246.8910                38.3446                27.2296

                     46                     47                     48
                      A                      A                      A
 Frequencies --   1278.8747              1284.8642              1313.8876
 Red. masses --      1.2398                 1.3487                 1.1936
 Frc consts  --      1.1947                 1.3119                 1.2140
 IR Inten    --     14.2663                15.3992                27.0326

                     49                     50                     51
                      A                      A                      A
 Frequencies --   1326.2234              1334.1849              1348.7674
 Red. masses --      1.4131                 1.2818                 1.2891
 Frc consts  --      1.4644                 1.3443                 1.3817
 IR Inten    --      7.8707                 4.6685                 1.1389

                     52                     53                     54
                      A                      A                      A
 Frequencies --   1365.8081              1368.4209              1385.7199
 Red. masses --      1.2611                 1.4097                 1.5056
 Frc consts  --      1.3861                 1.5554                 1.7034
 IR Inten    --     12.0347                 4.4591                 4.6245

                     55                     56                     57
                      A                      A                      A
 Frequencies --   1386.9521              1395.0821              1400.7539
 Red. masses --      1.4208                 1.2385                 1.4250
 Frc consts  --      1.6103                 1.4202                 1.6474
 IR Inten    --      0.8045                48.7460                 9.9370

                     58                     59                     60
                      A                      A                      A
 Frequencies --   1413.9850              1423.0452              1429.1822
 Red. masses --      1.4123                 1.3361                 1.3538
 Frc consts  --      1.6636                 1.5941                 1.6293
 IR Inten    --     88.5396                33.9012                 0.1334

                     61                     62                     63
                      A                      A                      A
 Frequencies --   1451.1664              1466.8671              1471.2046
 Red. masses --      1.4004                 1.1010                 1.1223
 Frc consts  --      1.7375                 1.3957                 1.4312
 IR Inten    --     12.4292                 6.0399                 3.1129

                     64                     65                     66
                      A                      A                      A
 Frequencies --   1473.5512              1481.3634              1491.4254
 Red. masses --      1.1112                 1.1404                 1.1278
 Frc consts  --      1.4216                 1.4745                 1.4780
 IR Inten    --     10.9731                10.4444                26.3036

                     67                     68                     69
                      A                      A                      A
 Frequencies --   1500.0302              1505.0341              1508.7848
 Red. masses --      1.0828                 1.0959                 1.1011
 Frc consts  --      1.4355                 1.4626                 1.4769
 IR Inten    --      2.9171                 5.1508                 8.0329

                     70                     71                     72
                      A                      A                      A
 Frequencies --   3009.9121              3035.4074              3036.6361
 Red. masses --      1.0827                 1.0701                 1.0701
 Frc consts  --      5.7794                 5.8090                 5.8141
 IR Inten    --     71.8553                48.3509                81.9752

                     73                     74                     75
                      A                      A                      A
 Frequencies --   3037.8828              3061.0424              3064.3436
 Red. masses --      1.0700                 1.0687                 1.0783
 Frc consts  --      5.8182                 5.9001                 5.9657
 IR Inten    --     82.2332                21.8278                 3.5292

                     76                     77                     78
                      A                      A                      A
 Frequencies --   3069.1460              3069.4220              3072.5739
 Red. masses --      1.0618                 1.0607                 1.0616
 Frc consts  --      5.8930                 5.8878                 5.9049
 IR Inten    --     40.7419                16.6390                45.6533

                     79                     80                     81
                      A                      A                      A
 Frequencies --   3075.2040              3119.4528              3121.3158
 Red. masses --      1.0669                 1.0975                 1.1040
 Frc consts  --      5.9444                 6.2926                 6.3374
 IR Inten    --     67.1268                40.8170                44.0951

                     82                     83                     84
                      A                      A                      A
 Frequencies --   3122.6120              3126.0015              3129.5943
 Red. masses --      1.1007                 1.1034                 1.1034
 Frc consts  --      6.3237                 6.3526                 6.3676
 IR Inten    --     59.1256                48.1020                50.4829

                     85                     86                     87
                      A                      A                      A
 Frequencies --   3140.9199              3141.6727              3142.7070
 Red. masses --      1.0954                 1.0961                 1.0961
 Frc consts  --      6.3672                 6.3741                 6.3783
 IR Inten    --     40.4232                42.5389                34.3298

 - Thermochemistry -
 -------------------
 Temperature   298.150 Kelvin.  Pressure   1.00000 Atm.
 Atom     1 has atomic number  6 and mass  12.00000

 Molecular mass:   186.12559 amu.
 Principal axes and moments of inertia in atomic units:
                           1         2         3
     Eigenvalues --   833.459965006.132425380.59958
           X            1.00000  -0.00238  -0.00020
           Y            0.00238   0.99994  -0.01061
           Z            0.00022   0.01061   0.99994
 This molecule is an asymmetric top.
 Rotational symmetry number  1.
 Warning -- assumption of classical behavior for rotation
           may cause significant error
 Rotational temperatures (Kelvin)      0.10392     0.01730     0.01610
 Rotational constants (GHZ):           2.16536     0.36051     0.33542
    1 imaginary frequencies ignored.
 Zero-point vibrational energy     736064.1 (Joules/Mol)
                                  175.92354 (Kcal/Mol)
 Warning -- explicit consideration of  17 degrees of freedom as
           vibrations may cause significant error
 Vibrational temperatures:     84.33   106.40   213.04   291.21   348.69
          (Kelvin)            352.93   396.05   476.97   519.99   565.48
                              631.73   637.47   689.55   719.92   749.66
                              790.07   859.85   954.41  1193.84  1195.22
                             1218.12  1242.76  1272.70  1297.92  1337.97
                             1341.67  1382.13  1427.12  1437.14  1462.40
                             1484.47  1518.04  1572.07  1581.31  1605.90
                             1628.02  1662.79  1687.30  1703.59  1718.95
                             1732.55  1757.25  1782.02  1825.95  1840.02
                             1848.63  1890.39  1908.14  1919.59  1940.58
                             1965.09  1968.85  1993.74  1995.51  2007.21
                             2015.37  2034.41  2047.44  2056.27  2087.90
                             2110.49  2116.74  2120.11  2131.35  2145.83
                             2158.21  2165.41  2170.80  4330.59  4367.27
                             4369.04  4370.84  4404.16  4408.91  4415.82
                             4416.21  4420.75  4424.53  4488.20  4490.88
                             4492.74  4497.62  4502.79  4519.08  4520.17
                             4521.65

 Zero-point correction=                           0.280352 (Hartree/Particle)
 Thermal correction to Energy=                    0.291274
 Thermal correction to Enthalpy=                  0.292218
 Thermal correction to Gibbs Free Energy=         0.243451
 Sum of electronic and zero-point Energies=           -617.229201
 Sum of electronic and thermal Energies=              -617.218280
 Sum of electronic and thermal Enthalpies=            -617.217335
 Sum of electronic and thermal Free Energies=         -617.266102

                     E (Thermal)             CV                S
                      KCal/Mol        Cal/Mol-Kelvin    Cal/Mol-Kelvin
 Total                  182.777             44.870            102.638
 Electronic               0.000              0.000              0.000
 Translational            0.889              2.981             41.570
 Rotational               0.889              2.981             31.485
 Vibrational            181.000             38.908             29.584
 Vibration     1          0.596              1.974              4.503
 Vibration     2          0.599              1.966              4.045
 Vibration     3          0.617              1.905              2.697
 Vibration     4          0.639              1.836              2.111
 Vibration     5          0.659              1.775              1.786
 Vibration     6          0.660              1.771              1.764
 Vibration     7          0.677              1.719              1.563
 Vibration     8          0.714              1.613              1.253
 Vibration     9          0.736              1.552              1.116
 Vibration    10          0.760              1.485              0.989
 Vibration    11          0.799              1.385              0.830
 Vibration    12          0.803              1.376              0.817
 Vibration    13          0.836              1.296              0.712
 Vibration    14          0.856              1.249              0.657
 Vibration    15          0.876              1.203              0.608
 Vibration    16          0.904              1.142              0.546
 Vibration    17          0.956              1.037              0.454

 Optimization completed.
    -- Stationary point found.
 Normal termination of Gaussian 16 at Sat Mar  9 17:46:29 2019.
