 Gaussian 16, Revision A.03,
 Gaussian 16:  ES64L-G16RevA.03 25-Dec-2016

 ----------------------------------------------------------------------
 #M062X/6-311++G(2d,2p) opt=ModRedundant freq=noraman SCRF=(Solvent=Wat
 er)
 ----------------------------------------------------------------------

 ----------------------------
 D_1a_4e_D_PSI.inp_extract_10
 ----------------------------
 Symbolic Z-matrix:
 Charge =  0 Multiplicity = 1

 SCF Done:  E(RM062X) =  -617.502608169     A.U. after   12 cycles
 SCF Done:  E(RM062X) =  -617.504240200     A.U. after   11 cycles
 SCF Done:  E(RM062X) =  -617.504364957     A.U. after   10 cycles
 SCF Done:  E(RM062X) =  -617.504378210     A.U. after    9 cycles
 SCF Done:  E(RM062X) =  -617.504379289     A.U. after    8 cycles
 SCF Done:  E(RM062X) =  -617.504379438     A.U. after    7 cycles
 Optimization completed.
    -- Stationary point found.
 Normal termination of Gaussian 16 at Sun Nov  4 21:55:18 2018.

 ----------------------------------------------------------------------
 #N Geom=AllCheck Guess=TCheck SCRF=Check GenChk RM062X/6-311++G(2d,2p)
  Freq
 ----------------------------------------------------------------------

 Structure from the checkpoint file:  "D_1a_4e_D_PSI.inp_extract_10.chk"
 ----------------------------
 D_1a_4e_D_PSI.inp_extract_10
 ----------------------------
 Charge =  0 Multiplicity = 1

                         Standard orientation:
 ---------------------------------------------------------------------
 Center     Atomic      Atomic             Coordinates (Angstroms)
 Number     Number       Type             X           Y           Z
 ---------------------------------------------------------------------
      1          6           0        3.507435   -0.848797   -0.107578
      2          6           0        1.247679    0.831787    0.479929
      3          6           0       -0.993715    0.124922    0.138520
      4          6           0        3.148493    0.284287   -1.067109
      5          8           0       -2.842125   -1.420769   -0.133572
      6          6           0       -3.778036   -0.360597   -0.285948
      7          6           0        2.259784   -1.315045    0.622762
      8          6           0       -1.949038    1.305441    0.040227
      9          6           0       -1.561415   -1.067084   -0.619752
     10          6           0       -3.345075    0.873305    0.489693
     11          8           0        1.626085   -0.238644    1.316823
     12          8           0        0.265882    0.435384   -0.446223
     13          6           0        2.427676    1.389902   -0.297610
     14          1           0        4.238693   -0.497020    0.624211
     15          1           0        3.949386   -1.691837   -0.639427
     16          1           0       -0.855502   -0.166013    1.183230
     17          1           0        4.040636    0.683351   -1.548343
     18          1           0        2.496961   -0.098709   -1.855027
     19          1           0       -4.731460   -0.742862    0.072076
     20          1           0       -3.877641   -0.118959   -1.351267
     21          1           0        1.552862   -1.756439   -0.085003
     22          1           0        2.492314   -2.056169    1.383994
     23          1           0       -1.979163    1.629399   -1.003730
     24          1           0       -1.582870    2.142262    0.636185
     25          1           0       -3.338807    0.637138    1.555944
     26          1           0       -4.067004    1.674980    0.333723
     27          1           0        3.111001    1.843051    0.422797
     28          1           0        2.070183    2.176246   -0.961022
     29          1           0        0.833463    1.579145    1.160935
     30          1           0       -1.615755   -0.817212   -1.687208
     31          1           0       -0.918756   -1.936846   -0.497091
 ---------------------------------------------------------------------

 SCF Done:  E(RM062X) =  -617.504379438     A.U. after    1 cycles

 The electronic state is 1-A.
 Alpha  occ. eigenvalues --  -19.63347 -19.63172 -19.63021 -10.63600 -10.58613
 Alpha  occ. eigenvalues --  -10.58104 -10.58083 -10.57797 -10.53300 -10.53182
 Alpha  occ. eigenvalues --  -10.53120 -10.53031 -10.52889  -1.20186  -1.16671
 Alpha  occ. eigenvalues --   -1.13487  -0.91048  -0.89772  -0.87459  -0.84443
 Alpha  occ. eigenvalues --   -0.74723  -0.73951  -0.72897  -0.70981  -0.65721
 Alpha  occ. eigenvalues --   -0.64234  -0.60041  -0.58666  -0.57494  -0.55502
 Alpha  occ. eigenvalues --   -0.54547  -0.53271  -0.51946  -0.50571  -0.49899
 Alpha  occ. eigenvalues --   -0.48322  -0.47731  -0.46022  -0.45647  -0.44528
 Alpha  occ. eigenvalues --   -0.44004  -0.42439  -0.41011  -0.40430  -0.39508
 Alpha  occ. eigenvalues --   -0.38386  -0.38122  -0.36429  -0.35168  -0.33458
 Alpha  occ. eigenvalues --   -0.32054
 Alpha virt. eigenvalues --   -0.00053   0.00770   0.00859   0.01044   0.02162
 Alpha virt. eigenvalues --    0.02459   0.02611   0.03470   0.03634   0.04340
 Alpha virt. eigenvalues --    0.04525   0.04758   0.05558   0.05800   0.07263

 Mulliken charges:
               1
     1  C   -0.359436
     2  C   -0.084996
     3  C   -0.223657
     4  C   -0.303840
     5  O   -0.325600
     6  C   -0.171037
     7  C   -0.109111
     8  C   -0.167123
     9  C   -0.318341
    10  C   -0.366123
    11  O   -0.275789
    12  O   -0.261563
    13  C   -0.381743
    14  H    0.165499
    15  H    0.169430
    16  H    0.288380
    17  H    0.184746
    18  H    0.178440
    19  H    0.207255
    20  H    0.135747
    21  H    0.102587
    22  H    0.204037
    23  H    0.211590
    24  H    0.136402
    25  H    0.162012
    26  H    0.187048
    27  H    0.186430
    28  H    0.179758
    29  H    0.252036
    30  H    0.185350
    31  H    0.211613
 Sum of Mulliken charges =  -0.00000

 Dipole moment (field-independent basis, Debye):
    X=              0.5315    Y=              1.9071    Z=             -0.8637  Tot=              2.1600
 Quadrupole moment (field-independent basis, Debye-Ang):
   XX=            -72.1289   YY=            -79.8692   ZZ=            -83.3231
   XY=             -7.3006   XZ=             -1.2220   YZ=              1.5828

  Exact polarizability: 175.879  -2.929 158.906  -1.793   0.107 150.177
 Approx polarizability: 147.056  -1.581 142.661  -0.170  -0.421 142.212

                      1                      2                      3
                      A                      A                      A
 Frequencies --      5.5689                52.7491                81.7926
 Red. masses --      3.4547                 4.3400                 3.4089
 Frc consts  --      0.0001                 0.0071                 0.0134
 IR Inten    --      0.7112                 1.1078                 0.5626

                      4                      5                      6
                      A                      A                      A
 Frequencies --    137.0092               179.5891               233.6287
 Red. masses --      3.4207                 2.7656                 2.9649
 Frc consts  --      0.0378                 0.0526                 0.0953
 IR Inten    --      3.4160                 0.1450                 7.3355

                      7                      8                      9
                      A                      A                      A
 Frequencies --    247.5435               287.1831               336.2873
 Red. masses --      2.1644                 2.2428                 2.5993
 Frc consts  --      0.0781                 0.1090                 0.1732
 IR Inten    --      3.4555                 4.1418                 4.1739

                     10                     11                     12
                      A                      A                      A
 Frequencies --    375.0598               389.3335               434.1308
 Red. masses --      2.3667                 2.6503                 3.2370
 Frc consts  --      0.1961                 0.2367                 0.3594
 IR Inten    --     21.6540                12.7625                 8.2856

                     13                     14                     15
                      A                      A                      A
 Frequencies --    459.7705               462.6516               476.9053
 Red. masses --      4.3194                 3.1891                 2.2743
 Frc consts  --      0.5380                 0.4022                 0.3048
 IR Inten    --      4.0339                 1.6311                 0.6008

                     16                     17                     18
                      A                      A                      A
 Frequencies --    532.5534               578.9492               609.2361
 Red. masses --      2.2822                 2.4425                 2.6406
 Frc consts  --      0.3813                 0.4824                 0.5775
 IR Inten    --      2.0396                14.5863                 1.1372

                     19                     20                     21
                      A                      A                      A
 Frequencies --    725.4575               830.3267               833.6494
 Red. masses --      2.9904                 2.3008                 1.5318
 Frc consts  --      0.9273                 0.9346                 0.6272
 IR Inten    --      4.3586                 0.7199                 2.5386

                     22                     23                     24
                      A                      A                      A
 Frequencies --    841.2489               875.4492               893.0965
 Red. masses --      3.1535                 1.3976                 2.3524
 Frc consts  --      1.3149                 0.6311                 1.1055
 IR Inten    --     10.8026                11.3617                10.8468

                     25                     26                     27
                      A                      A                      A
 Frequencies --    898.6341               907.9505               933.0528
 Red. masses --      2.4006                 2.4563                 1.6257
 Frc consts  --      1.1422                 1.1930                 0.8339
 IR Inten    --     22.7063                24.2693                21.8980

                     28                     29                     30
                      A                      A                      A
 Frequencies --    943.2500               980.9612               996.2587
 Red. masses --      2.2093                 2.3632                 1.3970
 Frc consts  --      1.1582                 1.3398                 0.8170
 IR Inten    --     39.4050                69.4480                14.0809

                     31                     32                     33
                      A                      A                      A
 Frequencies --   1032.8127              1045.6475              1055.0349
 Red. masses --      2.2148                 2.2810                 1.7680
 Frc consts  --      1.3920                 1.4694                 1.1595
 IR Inten    --     20.9452                90.0790                44.1212

                     34                     35                     36
                      A                      A                      A
 Frequencies --   1063.9039              1072.8032              1111.5377
 Red. masses --      1.5092                 2.2726                 4.3211
 Frc consts  --      1.0065                 1.5411                 3.1455
 IR Inten    --     59.1902                22.1112               293.1092

                     37                     38                     39
                      A                      A                      A
 Frequencies --   1149.4335              1153.8500              1167.7075
 Red. masses --      2.6790                 2.7089                 3.5800
 Frc consts  --      2.0854                 2.1249                 2.8760
 IR Inten    --     55.8887                92.8309               150.6005

                     40                     41                     42
                      A                      A                      A
 Frequencies --   1172.9080              1191.8941              1210.9109
 Red. masses --      2.5603                 2.4456                 1.4495
 Frc consts  --      2.0752                 2.0469                 1.2523
 IR Inten    --     39.1814                53.5780                21.0801

                     43                     44                     45
                      A                      A                      A
 Frequencies --   1215.4915              1233.9067              1249.4144
 Red. masses --      1.4691                 1.6279                 1.5044
 Frc consts  --      1.2788                 1.4603                 1.3837
 IR Inten    --     11.0169                59.6636                31.9264

                     46                     47                     48
                      A                      A                      A
 Frequencies --   1289.7506              1304.1965              1319.8869
 Red. masses --      1.2188                 1.1908                 1.1495
 Frc consts  --      1.1945                 1.1933                 1.1799
 IR Inten    --     17.2539                22.1936                 6.5544

                     49                     50                     51
                      A                      A                      A
 Frequencies --   1329.6702              1342.3560              1353.1644
 Red. masses --      1.2903                 1.2507                 1.2426
 Frc consts  --      1.3441                 1.3279                 1.3405
 IR Inten    --      8.8749                 3.3452                24.5257

                     52                     53                     54
                      A                      A                      A
 Frequencies --   1361.6096              1380.7661              1386.3802
 Red. masses --      1.3026                 1.4287                 1.4678
 Frc consts  --      1.4228                 1.6048                 1.6622
 IR Inten    --      3.3502                 7.0848                 0.6114

                     55                     56                     57
                      A                      A                      A
 Frequencies --   1392.1622              1396.1629              1401.6214
 Red. masses --      1.5958                 1.6051                 1.2515
 Frc consts  --      1.8223                 1.8435                 1.4486
 IR Inten    --      6.2527                20.4447                10.5278

                     58                     59                     60
                      A                      A                      A
 Frequencies --   1405.1350              1417.6525              1432.2573
 Red. masses --      1.4292                 1.3958                 1.4129
 Frc consts  --      1.6626                 1.6528                 1.7076
 IR Inten    --     17.6754                11.2565                18.4841

                     61                     62                     63
                      A                      A                      A
 Frequencies --   1441.0800              1477.1446              1480.2997
 Red. masses --      1.4172                 1.1056                 1.0929
 Frc consts  --      1.7341                 1.4213                 1.4110
 IR Inten    --      1.2714                 5.0889                 7.9487

                     64                     65                     66
                      A                      A                      A
 Frequencies --   1483.2048              1493.6330              1495.8283
 Red. masses --      1.0861                 1.1129                 1.1081
 Frc consts  --      1.4077                 1.4629                 1.4608
 IR Inten    --      8.3260                11.2272                13.9289

                     67                     68                     69
                      A                      A                      A
 Frequencies --   1501.1105              1509.0871              1513.1986
 Red. masses --      1.0877                 1.0948                 1.1021
 Frc consts  --      1.4440                 1.4689                 1.4868
 IR Inten    --      0.7073                 3.5974                 9.2755

                     70                     71                     72
                      A                      A                      A
 Frequencies --   3017.1627              3020.7799              3056.3998
 Red. masses --      1.0692                 1.0704                 1.0668
 Frc consts  --      5.7345                 5.7549                 5.8714
 IR Inten    --     40.7860                93.1596                 5.7555

                     73                     74                     75
                      A                      A                      A
 Frequencies --   3056.9543              3064.0401              3066.9771
 Red. masses --      1.0679                 1.0626                 1.0793
 Frc consts  --      5.8800                 5.8779                 5.9817
 IR Inten    --     52.2756                49.6046                21.1303

                     76                     77                     78
                      A                      A                      A
 Frequencies --   3070.1280              3072.3153              3073.5111
 Red. masses --      1.0630                 1.0741                 1.0690
 Frc consts  --      5.9031                 5.9737                 5.9497
 IR Inten    --     20.4167                77.7300                 6.7245

                     79                     80                     81
                      A                      A                      A
 Frequencies --   3081.9638              3109.9049              3114.0942
 Red. masses --      1.0686                 1.1005                 1.0978
 Frc consts  --      5.9804                 6.2708                 6.2726
 IR Inten    --     64.9557                48.7248                38.2621

                     82                     83                     84
                      A                      A                      A
 Frequencies --   3119.8352              3120.7901              3131.2297
 Red. masses --      1.1022                 1.1021                 1.1000
 Frc consts  --      6.3211                 6.3243                 6.3545
 IR Inten    --     62.9618                53.0008                13.4941

                     85                     86                     87
                      A                      A                      A
 Frequencies --   3131.2686              3133.5465              3135.9962
 Red. masses --      1.0976                 1.0956                 1.0989
 Frc consts  --      6.3406                 6.3386                 6.3673
 IR Inten    --     76.9697                43.7261                35.9020

 - Thermochemistry -
 -------------------
 Temperature   298.150 Kelvin.  Pressure   1.00000 Atm.
 Atom     1 has atomic number  6 and mass  12.00000

 Molecular mass:   186.12559 amu.
 Principal axes and moments of inertia in atomic units:
                           1         2         3
     Eigenvalues --   942.125474364.530414709.71707
           X            0.99992  -0.01117  -0.00547
           Y            0.01124   0.99985   0.01312
           Z            0.00532  -0.01318   0.99990
 This molecule is an asymmetric top.
 Rotational symmetry number  1.
 Warning -- assumption of classical behavior for rotation
           may cause significant error
 Rotational temperatures (Kelvin)      0.09193     0.01984     0.01839
 Rotational constants (GHZ):           1.91561     0.41350     0.38320
 Zero-point vibrational energy     736605.3 (Joules/Mol)
                                  176.05289 (Kcal/Mol)
 Warning -- explicit consideration of  18 degrees of freedom as
           vibrations may cause significant error
 Vibrational temperatures:      8.01    75.89   117.68   197.13   258.39
          (Kelvin)            336.14   356.16   413.19   483.84   539.63
                              560.16   624.62   661.51   665.65   686.16
                              766.23   832.98   876.55  1043.77  1194.65
                             1199.44  1210.37  1259.58  1284.97  1292.93
                             1306.34  1342.45  1357.13  1411.38  1433.39
                             1485.99  1504.45  1517.96  1530.72  1543.52
                             1599.25  1653.78  1660.13  1680.07  1687.55
                             1714.87  1742.23  1748.82  1775.32  1797.63
                             1855.66  1876.45  1899.02  1913.10  1931.35
                             1946.90  1959.05  1986.61  1994.69  2003.01
                             2008.77  2016.62  2021.68  2039.69  2060.70
                             2073.39  2125.28  2129.82  2134.00  2149.00
                             2152.16  2159.76  2171.24  2177.16  4341.02
                             4346.23  4397.48  4398.28  4408.47  4412.70
                             4417.23  4420.38  4422.10  4434.26  4474.46
                             4480.49  4488.75  4490.12  4505.14  4505.20
                             4508.47  4512.00

 Zero-point correction=                           0.280558 (Hartree/Particle)
 Thermal correction to Energy=                    0.292411
 Thermal correction to Enthalpy=                  0.293355
 Thermal correction to Gibbs Free Energy=         0.240204
 Sum of electronic and zero-point Energies=           -617.223821
 Sum of electronic and thermal Energies=              -617.211969
 Sum of electronic and thermal Enthalpies=            -617.211024
 Sum of electronic and thermal Free Energies=         -617.264176

                     E (Thermal)             CV                S
                      KCal/Mol        Cal/Mol-Kelvin    Cal/Mol-Kelvin
 Total                  183.491             46.724            111.866
 Electronic               0.000              0.000              0.000
 Translational            0.889              2.981             41.570
 Rotational               0.889              2.981             31.338
 Vibrational            181.713             40.763             38.958
 Vibration     1          0.593              1.987              9.174
 Vibration     2          0.596              1.977              4.712
 Vibration     3          0.600              1.962              3.847
 Vibration     4          0.614              1.916              2.845
 Vibration     5          0.629              1.867              2.333
 Vibration     6          0.654              1.789              1.851
 Vibration     7          0.661              1.767              1.748
 Vibration     8          0.684              1.698              1.491
 Vibration     9          0.717              1.603              1.230
 Vibration    10          0.746              1.523              1.059
 Vibration    11          0.757              1.493              1.003
 Vibration    12          0.795              1.396              0.845
 Vibration    13          0.818              1.339              0.767
 Vibration    14          0.820              1.333              0.758
 Vibration    15          0.833              1.301              0.718
 Vibration    16          0.888              1.178              0.582
 Vibration    17          0.936              1.077              0.487
 Vibration    18          0.968              1.012              0.434

 Optimization completed.
    -- Stationary point found.
 Normal termination of Gaussian 16 at Sun Nov  4 22:49:44 2018.
