 Gaussian 16, Revision A.03,
 Gaussian 16:  ES64L-G16RevA.03 25-Dec-2016

 ----------------------------------------------------------------------
 #M062X/6-311++G(2d,2p) opt=ModRedundant freq=noraman SCRF=(Solvent=Wat
 er)
 ----------------------------------------------------------------------

 ----------------------------
 D_1a_4e_D_PSI.inp_extract_12
 ----------------------------
 Symbolic Z-matrix:
 Charge =  0 Multiplicity = 1

 SCF Done:  E(RM062X) =  -617.502652765     A.U. after   12 cycles
 SCF Done:  E(RM062X) =  -617.504282605     A.U. after   11 cycles
 SCF Done:  E(RM062X) =  -617.504375290     A.U. after   10 cycles
 SCF Done:  E(RM062X) =  -617.504421626     A.U. after   10 cycles
 SCF Done:  E(RM062X) =  -617.504424203     A.U. after    8 cycles
 Optimization completed.
    -- Stationary point found.
 Normal termination of Gaussian 16 at Sun Nov  4 21:52:11 2018.

 ----------------------------------------------------------------------
 #N Geom=AllCheck Guess=TCheck SCRF=Check GenChk RM062X/6-311++G(2d,2p)
  Freq
 ----------------------------------------------------------------------

 Structure from the checkpoint file:  "D_1a_4e_D_PSI.inp_extract_12.chk"
 ----------------------------
 D_1a_4e_D_PSI.inp_extract_12
 ----------------------------
 Charge =  0 Multiplicity = 1

                         Standard orientation:
 ---------------------------------------------------------------------
 Center     Atomic      Atomic             Coordinates (Angstroms)
 Number     Number       Type             X           Y           Z
 ---------------------------------------------------------------------
      1          6           0        3.434947    0.849733    0.385023
      2          6           0        1.275912   -0.711530   -0.707788
      3          6           0       -1.024088   -0.314869   -0.237419
      4          6           0        3.148401   -0.533582    0.964983
      5          8           0       -2.706054    1.428990   -0.083000
      6          6           0       -3.687836    0.512312    0.383170
      7          6           0        2.152150    1.436911   -0.176811
      8          6           0       -2.048717   -1.358468    0.175761
      9          6           0       -1.401285    1.053522    0.317202
     10          6           0       -3.454500   -0.878383   -0.184397
     11          8           0        1.573853    0.588357   -1.170819
     12          8           0        0.257230   -0.686195    0.259156
     13          6           0        2.489561   -1.400101   -0.106256
     14          1           0        4.175466    0.771766   -0.414616
     15          1           0        3.834738    1.522371    1.144335
     16          1           0       -0.990344   -0.244452   -1.329067
     17          1           0        4.064193   -1.006125    1.318138
     18          1           0        2.479546   -0.436992    1.822759
     19          1           0       -4.650347    0.912999    0.072720
     20          1           0       -3.660799    0.481441    1.479372
     21          1           0        1.433268    1.593873    0.632344
     22          1           0        2.325497    2.389592   -0.672130
     23          1           0       -1.971849   -1.499575    1.257700
     24          1           0       -1.817613   -2.312096   -0.299095
     25          1           0       -3.570665   -0.840430   -1.269657
     26          1           0       -4.207780   -1.563832    0.204109
     27          1           0        3.197025   -1.579749   -0.917805
     28          1           0        2.181209   -2.367188    0.288486
     29          1           0        0.923973   -1.243874   -1.594243
     30          1           0       -1.331942    1.025027    1.412526
     31          1           0       -0.721086    1.814757   -0.059381
 ---------------------------------------------------------------------

 SCF Done:  E(RM062X) =  -617.504424203     A.U. after    1 cycles

 The electronic state is 1-A.
 Alpha  occ. eigenvalues --  -19.63390 -19.63139 -19.63092 -10.63632 -10.58743
 Alpha  occ. eigenvalues --  -10.58062 -10.57975 -10.57847 -10.53278 -10.53186
 Alpha  occ. eigenvalues --  -10.53140 -10.53058 -10.52913  -1.20205  -1.16620
 Alpha  occ. eigenvalues --   -1.13515  -0.91119  -0.89861  -0.87378  -0.84420
 Alpha  occ. eigenvalues --   -0.74495  -0.74134  -0.73073  -0.71096  -0.65713
 Alpha  occ. eigenvalues --   -0.64270  -0.60027  -0.58868  -0.57342  -0.55301
 Alpha  occ. eigenvalues --   -0.54747  -0.53314  -0.52214  -0.50538  -0.50050
 Alpha  occ. eigenvalues --   -0.47796  -0.47672  -0.45964  -0.45562  -0.44347
 Alpha  occ. eigenvalues --   -0.44133  -0.43261  -0.40696  -0.40082  -0.39178
 Alpha  occ. eigenvalues --   -0.38683  -0.38106  -0.36527  -0.35637  -0.33476
 Alpha  occ. eigenvalues --   -0.31894
 Alpha virt. eigenvalues --   -0.00051   0.00763   0.00789   0.01106   0.02156
 Alpha virt. eigenvalues --    0.02489   0.02595   0.03392   0.03685   0.04346
 Alpha virt. eigenvalues --    0.04582   0.04730   0.05625   0.05827   0.07152

 Mulliken charges:
               1
     1  C   -0.376874
     2  C   -0.158451
     3  C    0.056397
     4  C   -0.296097
     5  O   -0.320227
     6  C   -0.117878
     7  C   -0.113366
     8  C   -0.253055
     9  C   -0.464642
    10  C   -0.377121
    11  O   -0.299253
    12  O   -0.257567
    13  C   -0.377036
    14  H    0.165437
    15  H    0.171479
    16  H    0.247947
    17  H    0.185593
    18  H    0.173293
    19  H    0.208708
    20  H    0.131016
    21  H    0.118290
    22  H    0.216443
    23  H    0.200431
    24  H    0.154829
    25  H    0.161824
    26  H    0.183854
    27  H    0.191458
    28  H    0.181966
    29  H    0.234639
    30  H    0.212699
    31  H    0.215260
 Sum of Mulliken charges =  -0.00000

 Dipole moment (field-independent basis, Debye):
    X=              0.5411    Y=             -1.9513    Z=              1.1871  Tot=              2.3472
 Quadrupole moment (field-independent basis, Debye-Ang):
   XX=            -71.3342   YY=            -81.0633   ZZ=            -82.1864
   XY=              6.0214   XZ=             -0.1554   YZ=              4.0721

  Exact polarizability: 176.419   2.346 159.390   1.059   1.465 149.984
 Approx polarizability: 147.285   1.445 142.056   0.039  -0.261 142.870

 ******    1 imaginary frequencies (negative Signs) ******

                      1                      2                      3
                      A                      A                      A
 Frequencies --    -22.9798                71.5179                80.0999
 Red. masses --      3.5176                 4.4524                 3.3159
 Frc consts  --      0.0011                 0.0134                 0.0125
 IR Inten    --      0.5869                 1.2734                 0.3133

                      4                      5                      6
                      A                      A                      A
 Frequencies --    138.1254               187.4284               236.0157
 Red. masses --      3.2056                 2.7933                 2.7943
 Frc consts  --      0.0360                 0.0578                 0.0917
 IR Inten    --      2.8451                 0.5564                 6.1107

                      7                      8                      9
                      A                      A                      A
 Frequencies --    248.9804               281.8509               330.5543
 Red. masses --      2.3871                 2.2038                 3.1271
 Frc consts  --      0.0872                 0.1031                 0.2013
 IR Inten    --      3.6674                 0.5203                13.1207

                     10                     11                     12
                      A                      A                      A
 Frequencies --    369.0298               384.4480               434.4508
 Red. masses --      2.1486                 2.5466                 3.2008
 Frc consts  --      0.1724                 0.2218                 0.3559
 IR Inten    --     12.3058                21.4631                 6.7413

                     13                     14                     15
                      A                      A                      A
 Frequencies --    455.6394               461.4658               480.4875
 Red. masses --      4.1017                 3.3016                 2.2495
 Frc consts  --      0.5017                 0.4142                 0.3060
 IR Inten    --      2.3073                 0.8430                 1.0635

                     16                     17                     18
                      A                      A                      A
 Frequencies --    532.8847               576.1687               618.0065
 Red. masses --      2.2529                 2.2411                 3.1248
 Frc consts  --      0.3769                 0.4383                 0.7032
 IR Inten    --      1.3023                14.4719                 0.4209

                     19                     20                     21
                      A                      A                      A
 Frequencies --    722.0737               830.5867               834.8783
 Red. masses --      2.9664                 2.1677                 1.6681
 Frc consts  --      0.9112                 0.8811                 0.6850
 IR Inten    --      3.5405                 0.4892                 4.6330

                     22                     23                     24
                      A                      A                      A
 Frequencies --    842.4779               875.9826               893.9514
 Red. masses --      2.9229                 1.3932                 2.3663
 Frc consts  --      1.2223                 0.6299                 1.1141
 IR Inten    --     10.8574                 9.6098                15.2023

                     25                     26                     27
                      A                      A                      A
 Frequencies --    898.4636               909.5976               934.3151
 Red. masses --      2.3600                 2.3773                 1.6214
 Frc consts  --      1.1224                 1.1588                 0.8339
 IR Inten    --     19.3073                23.0232                18.2530

                     28                     29                     30
                      A                      A                      A
 Frequencies --    945.3316               982.6144               991.9325
 Red. masses --      2.3091                 2.4160                 1.3696
 Frc consts  --      1.2158                 1.3744                 0.7940
 IR Inten    --     27.5213                77.0916                 8.3082

                     31                     32                     33
                      A                      A                      A
 Frequencies --   1034.2324              1046.8588              1055.7113
 Red. masses --      2.2147                 2.1984                 1.8403
 Frc consts  --      1.3958                 1.4195                 1.2085
 IR Inten    --     37.9146                52.9969                74.8633

                     34                     35                     36
                      A                      A                      A
 Frequencies --   1063.5098              1073.7361              1112.1691
 Red. masses --      1.5499                 2.1741                 4.3037
 Frc consts  --      1.0329                 1.4768                 3.1364
 IR Inten    --     49.7852                33.1030               280.2717

                     37                     38                     39
                      A                      A                      A
 Frequencies --   1150.6707              1155.0752              1163.8497
 Red. masses --      3.0523                 2.3966                 2.6150
 Frc consts  --      2.3811                 1.8839                 2.0870
 IR Inten    --    117.3115                19.1371                38.7055

                     40                     41                     42
                      A                      A                      A
 Frequencies --   1174.8427              1193.8446              1210.3903
 Red. masses --      3.3769                 2.3094                 1.3971
 Frc consts  --      2.7462                 1.9393                 1.2059
 IR Inten    --    170.8402                72.7527                20.0623

                     43                     44                     45
                      A                      A                      A
 Frequencies --   1218.3820              1234.5225              1250.5080
 Red. masses --      1.6246                 1.6217                 1.5049
 Frc consts  --      1.4209                 1.4562                 1.3865
 IR Inten    --      5.5756                59.0692                37.1357

                     46                     47                     48
                      A                      A                      A
 Frequencies --   1289.9401              1304.5874              1322.2465
 Red. masses --      1.2195                 1.2030                 1.1560
 Frc consts  --      1.1955                 1.2063                 1.1908
 IR Inten    --     17.0006                28.7183                 6.0594

                     49                     50                     51
                      A                      A                      A
 Frequencies --   1328.5830              1343.7701              1355.2603
 Red. masses --      1.2986                 1.2676                 1.2300
 Frc consts  --      1.3505                 1.3486                 1.3311
 IR Inten    --      7.8372                 4.8065                18.9506

                     52                     53                     54
                      A                      A                      A
 Frequencies --   1362.2716              1382.1976              1385.6208
 Red. masses --      1.3196                 1.4282                 1.4674
 Frc consts  --      1.4428                 1.6076                 1.6600
 IR Inten    --      4.0645                 4.2531                 1.7503

                     55                     56                     57
                      A                      A                      A
 Frequencies --   1390.1423              1394.2319              1401.1148
 Red. masses --      1.5356                 1.6753                 1.2761
 Frc consts  --      1.7485                 1.9187                 1.4760
 IR Inten    --     17.0271                 9.7597                19.9789

                     58                     59                     60
                      A                      A                      A
 Frequencies --   1407.6887              1419.5796              1433.2631
 Red. masses --      1.3886                 1.4038                 1.3731
 Frc consts  --      1.6212                 1.6668                 1.6619
 IR Inten    --     15.5239                11.8539                18.2190

                     61                     62                     63
                      A                      A                      A
 Frequencies --   1447.6525              1475.4049              1481.4585
 Red. masses --      1.3762                 1.1074                 1.0915
 Frc consts  --      1.6993                 1.4203                 1.4114
 IR Inten    --      2.6005                 4.9420                 7.9485

                     64                     65                     66
                      A                      A                      A
 Frequencies --   1482.2242              1494.5350              1494.9882
 Red. masses --      1.0862                 1.1099                 1.1166
 Frc consts  --      1.4060                 1.4607                 1.4704
 IR Inten    --      8.4035                 7.8938                17.2372

                     67                     68                     69
                      A                      A                      A
 Frequencies --   1500.4177              1509.4462              1513.2184
 Red. masses --      1.0869                 1.0937                 1.1010
 Frc consts  --      1.4417                 1.4682                 1.4853
 IR Inten    --      1.4871                 2.9694                 8.1730

                     70                     71                     72
                      A                      A                      A
 Frequencies --   3013.4243              3020.2139              3049.9361
 Red. masses --      1.0697                 1.0705                 1.0793
 Frc consts  --      5.7229                 5.7530                 5.9150
 IR Inten    --     48.8670                84.8175                 5.6835

                     73                     74                     75
                      A                      A                      A
 Frequencies --   3055.8213              3060.3485              3064.5843
 Red. masses --      1.0685                 1.0690                 1.0634
 Frc consts  --      5.8788                 5.8990                 5.8843
 IR Inten    --     46.5674                44.1297                40.6523

                     76                     77                     78
                      A                      A                      A
 Frequencies --   3069.6462              3070.4210              3072.0994
 Red. masses --      1.0707                 1.0625                 1.0703
 Frc consts  --      5.9440                 5.9015                 5.9517
 IR Inten    --     24.8689                64.8223                16.6747

                     79                     80                     81
                      A                      A                      A
 Frequencies --   3082.8709              3114.2766              3114.8442
 Red. masses --      1.0694                 1.0987                 1.0979
 Frc consts  --      5.9883                 6.2784                 6.2759
 IR Inten    --     77.8452                46.1030                33.5196

                     82                     83                     84
                      A                      A                      A
 Frequencies --   3119.8435              3120.9114              3131.6051
 Red. masses --      1.1021                 1.1026                 1.1029
 Frc consts  --      6.3204                 6.3277                 6.3724
 IR Inten    --     66.7069                54.0230                37.9804

                     85                     86                     87
                      A                      A                      A
 Frequencies --   3132.8973              3135.9558              3140.2568
 Red. masses --      1.0945                 1.0973                 1.0959
 Frc consts  --      6.3294                 6.3580                 6.3671
 IR Inten    --     49.4530                71.8727                 4.1551

 - Thermochemistry -
 -------------------
 Temperature   298.150 Kelvin.  Pressure   1.00000 Atm.
 Atom     1 has atomic number  6 and mass  12.00000

 Molecular mass:   186.12559 amu.
 Principal axes and moments of inertia in atomic units:
                           1         2         3
     Eigenvalues --   953.159934225.443484698.91829
           X            0.99995   0.00924   0.00360
           Y           -0.00933   0.99963   0.02568
           Z           -0.00336  -0.02571   0.99966
 This molecule is an asymmetric top.
 Rotational symmetry number  1.
 Warning -- assumption of classical behavior for rotation
           may cause significant error
 Rotational temperatures (Kelvin)      0.09087     0.02050     0.01843
 Rotational constants (GHZ):           1.89343     0.42711     0.38408
    1 imaginary frequencies ignored.
 Zero-point vibrational energy     736764.8 (Joules/Mol)
                                  176.09102 (Kcal/Mol)
 Warning -- explicit consideration of  17 degrees of freedom as
           vibrations may cause significant error
 Vibrational temperatures:    102.90   115.25   198.73   269.67   339.57
          (Kelvin)            358.23   405.52   475.59   530.95   553.13
                              625.08   655.56   663.95   691.31   766.70
                              828.98   889.17  1038.90  1195.03  1201.20
                             1212.14  1260.34  1286.20  1292.69  1308.71
                             1344.27  1360.12  1413.76  1427.17  1488.03
                             1506.20  1518.93  1530.15  1544.87  1600.16
                             1655.56  1661.90  1674.52  1690.34  1717.68
                             1741.48  1752.98  1776.20  1799.20  1855.94
                             1877.01  1902.42  1911.53  1933.39  1949.92
                             1960.01  1988.67  1993.60  2000.10  2005.99
                             2015.89  2025.35  2042.46  2062.15  2082.85
                             2122.78  2131.49  2132.59  2150.30  2150.95
                             2158.77  2171.76  2177.18  4335.65  4345.41
                             4388.18  4396.65  4403.16  4409.25  4416.54
                             4417.65  4420.07  4435.56  4480.75  4481.57
                             4488.76  4490.30  4505.68  4507.54  4511.94
                             4518.13

 Zero-point correction=                           0.280619 (Hartree/Particle)
 Thermal correction to Energy=                    0.291506
 Thermal correction to Enthalpy=                  0.292450
 Thermal correction to Gibbs Free Energy=         0.243948
 Sum of electronic and zero-point Energies=           -617.223805
 Sum of electronic and thermal Energies=              -617.212918
 Sum of electronic and thermal Enthalpies=            -617.211974
 Sum of electronic and thermal Free Energies=         -617.260476

                     E (Thermal)             CV                S
                      KCal/Mol        Cal/Mol-Kelvin    Cal/Mol-Kelvin
 Total                  182.923             44.730            102.081
 Electronic               0.000              0.000              0.000
 Translational            0.889              2.981             41.570
 Rotational               0.889              2.981             31.315
 Vibrational            181.145             38.768             29.196
 Vibration     1          0.598              1.968              4.111
 Vibration     2          0.600              1.963              3.888
 Vibration     3          0.614              1.915              2.830
 Vibration     4          0.632              1.857              2.253
 Vibration     5          0.655              1.786              1.833
 Vibration     6          0.662              1.764              1.738
 Vibration     7          0.681              1.707              1.522
 Vibration     8          0.713              1.614              1.257
 Vibration     9          0.741              1.536              1.084
 Vibration    10          0.753              1.503              1.022
 Vibration    11          0.795              1.395              0.844
 Vibration    12          0.814              1.348              0.779
 Vibration    13          0.819              1.336              0.762
 Vibration    14          0.837              1.293              0.709
 Vibration    15          0.888              1.177              0.581
 Vibration    16          0.933              1.083              0.493
 Vibration    17          0.978              0.994              0.420

                           ! Non-Optimized Parameters !
 Normal termination of Gaussian 16 at Sun Nov  4 22:45:17 2018.
