 Gaussian 16, Revision A.03,
 Gaussian 16:  ES64L-G16RevA.03 25-Dec-2016

 ----------------------------------------------------------------------
 #M062X/6-311++G(2d,2p) opt=ModRedundant freq=noraman SCRF=(Solvent=Wat
 er)
 ----------------------------------------------------------------------

 ---------------------------
 D_1a_4e_D_PSI.inp_extract_5
 ---------------------------
 Symbolic Z-matrix:
 Charge =  0 Multiplicity = 1

 SCF Done:  E(RM062X) =  -617.499312844     A.U. after   12 cycles
 SCF Done:  E(RM062X) =  -617.501015351     A.U. after   11 cycles
 SCF Done:  E(RM062X) =  -617.501194346     A.U. after   10 cycles
 SCF Done:  E(RM062X) =  -617.501304649     A.U. after   10 cycles
 SCF Done:  E(RM062X) =  -617.501310989     A.U. after    8 cycles
 SCF Done:  E(RM062X) =  -617.501311625     A.U. after    7 cycles
 Optimization completed.
    -- Stationary point found.
 Normal termination of Gaussian 16 at Sun Nov  4 21:55:57 2018.

 ----------------------------------------------------------------------
 #N Geom=AllCheck Guess=TCheck SCRF=Check GenChk RM062X/6-311++G(2d,2p)
  Freq
 ----------------------------------------------------------------------

 Structure from the checkpoint file:  "D_1a_4e_D_PSI.inp_extract_5.chk"
 ---------------------------
 D_1a_4e_D_PSI.inp_extract_5
 ---------------------------
 Charge =  0 Multiplicity = 1

                         Standard orientation:
 ---------------------------------------------------------------------
 Center     Atomic      Atomic             Coordinates (Angstroms)
 Number     Number       Type             X           Y           Z
 ---------------------------------------------------------------------
      1          6           0       -3.560200    0.256795   -0.728311
      2          6           0       -1.153559    0.089203    0.840677
      3          6           0        0.980605   -0.144003   -0.293234
      4          6           0       -3.206132   -1.061201   -0.041762
      5          8           0        3.218188   -0.939356   -0.785660
      6          6           0        3.801934    0.017085    0.089782
      7          6           0       -2.292512    1.044903   -1.012714
      8          6           0        1.532724    0.927208    0.638633
      9          6           0        1.933731   -1.330973   -0.344441
     10          6           0        2.951554    1.273716    0.180214
     11          8           0       -1.542483    1.276878    0.180555
     12          8           0       -0.298491   -0.680978    0.038374
     13          6           0       -2.352035   -0.777573    1.192513
     14          1           0       -4.209094    0.849855   -0.079203
     15          1           0       -4.094646    0.084093   -1.662965
     16          1           0        0.916143    0.286637   -1.299629
     17          1           0       -4.106748   -1.604538    0.242202
     18          1           0       -2.648465   -1.694130   -0.734597
     19          1           0        4.790312    0.233532   -0.309604
     20          1           0        3.918754   -0.429986    1.084620
     21          1           0       -1.668653    0.509336   -1.734152
     22          1           0       -2.514601    2.030756   -1.415033
     23          1           0        1.574457    0.536362    1.659753
     24          1           0        0.896706    1.810277    0.639347
     25          1           0        2.919482    1.751815   -0.801038
     26          1           0        3.413365    1.976283    0.873877
     27          1           0       -2.941568   -0.234240    1.933160
     28          1           0       -1.996816   -1.696762    1.656588
     29          1           0       -0.642352    0.427615    1.740580
     30          1           0        1.993460   -1.780355    0.655031
     31          1           0        1.565894   -2.079854   -1.043220
 ---------------------------------------------------------------------

 SCF Done:  E(RM062X) =  -617.501311625     A.U. after    1 cycles

 The electronic state is 1-A.
 Alpha  occ. eigenvalues --  -19.63283 -19.63189 -19.62848 -10.63440 -10.58871
 Alpha  occ. eigenvalues --  -10.58102 -10.58089 -10.57728 -10.53427 -10.53389
 Alpha  occ. eigenvalues --  -10.53047 -10.52951 -10.52833  -1.19995  -1.16741
 Alpha  occ. eigenvalues --   -1.13266  -0.91086  -0.89694  -0.87575  -0.84501
 Alpha  occ. eigenvalues --   -0.75332  -0.74019  -0.72523  -0.70826  -0.66173
 Alpha  occ. eigenvalues --   -0.63310  -0.60200  -0.58710  -0.56782  -0.56108
 Alpha  occ. eigenvalues --   -0.54045  -0.53435  -0.52177  -0.50975  -0.49616
 Alpha  occ. eigenvalues --   -0.48612  -0.46904  -0.46282  -0.45345  -0.45235
 Alpha  occ. eigenvalues --   -0.43748  -0.42973  -0.41097  -0.40322  -0.39192
 Alpha  occ. eigenvalues --   -0.38437  -0.37696  -0.36193  -0.34553  -0.33659
 Alpha  occ. eigenvalues --   -0.32260
 Alpha virt. eigenvalues --   -0.00071   0.00780   0.00793   0.01043   0.02154
 Alpha virt. eigenvalues --    0.02453   0.02654   0.03513   0.03561   0.04461
 Alpha virt. eigenvalues --    0.04614   0.04754   0.05702   0.05721   0.06826

 Mulliken charges:
               1
     1  C   -0.414120
     2  C   -0.033809
     3  C    0.005374
     4  C   -0.280393
     5  O   -0.344371
     6  C   -0.198418
     7  C   -0.087627
     8  C   -0.177963
     9  C   -0.323533
    10  C   -0.466675
    11  O   -0.272514
    12  O   -0.320247
    13  C   -0.508758
    14  H    0.161368
    15  H    0.173305
    16  H    0.245234
    17  H    0.184540
    18  H    0.173685
    19  H    0.211093
    20  H    0.140109
    21  H    0.135499
    22  H    0.200451
    23  H    0.223916
    24  H    0.201509
    25  H    0.168786
    26  H    0.173904
    27  H    0.191788
    28  H    0.186241
    29  H    0.263401
    30  H    0.186576
    31  H    0.201648
 Sum of Mulliken charges =  -0.00000

 Dipole moment (field-independent basis, Debye):
    X=             -0.8973    Y=              0.7498    Z=              1.3965  Tot=              1.8214
 Quadrupole moment (field-independent basis, Debye-Ang):
   XX=            -76.2304   YY=            -83.4105   ZZ=            -78.2815
   XY=              6.5442   XZ=              6.7756   YZ=             -2.8250

  Exact polarizability: 174.985   3.257 156.215   0.982  -2.103 154.058
 Approx polarizability: 145.936   1.319 142.202  -0.100  -0.026 143.955

                      1                      2                      3
                      A                      A                      A
 Frequencies --     12.7824                59.9657                95.8779
 Red. masses --      3.8481                 3.7591                 3.6621
 Frc consts  --      0.0004                 0.0080                 0.0198
 IR Inten    --      0.2456                 1.9599                 3.2314

                      4                      5                      6
                      A                      A                      A
 Frequencies --    150.6368               200.6781               224.2525
 Red. masses --      3.0570                 3.3287                 2.7392
 Frc consts  --      0.0409                 0.0790                 0.0812
 IR Inten    --      0.3735                 2.6286                10.0268

                      7                      8                      9
                      A                      A                      A
 Frequencies --    262.6216               263.0068               344.4090
 Red. masses --      2.2888                 2.7094                 2.7931
 Frc consts  --      0.0930                 0.1104                 0.1952
 IR Inten    --      1.8270                 2.4718                11.1107

                     10                     11                     12
                      A                      A                      A
 Frequencies --    363.5596               380.2063               437.9169
 Red. masses --      2.1639                 2.2002                 3.3740
 Frc consts  --      0.1685                 0.1874                 0.3812
 IR Inten    --      4.6736                19.2293                 3.4184

                     13                     14                     15
                      A                      A                      A
 Frequencies --    447.4014               462.0994               486.7358
 Red. masses --      3.0456                 3.4011                 2.5606
 Frc consts  --      0.3592                 0.4279                 0.3574
 IR Inten    --      5.8227                 3.4981                 2.7360

                     16                     17                     18
                      A                      A                      A
 Frequencies --    539.1313               577.9604               635.9812
 Red. masses --      1.9868                 2.4150                 3.5857
 Frc consts  --      0.3402                 0.4753                 0.8545
 IR Inten    --      5.2649                12.8603                 5.9108

                     19                     20                     21
                      A                      A                      A
 Frequencies --    720.0889               824.5610               833.8264
 Red. masses --      3.0425                 1.9714                 1.6147
 Frc consts  --      0.9295                 0.7897                 0.6614
 IR Inten    --      5.0523                 2.8384                 2.4125

                     22                     23                     24
                      A                      A                      A
 Frequencies --    840.5461               887.9597               890.0382
 Red. masses --      3.5876                 1.3797                 2.4008
 Frc consts  --      1.4934                 0.6410                 1.1205
 IR Inten    --     10.9454                18.1220                 9.5893

                     25                     26                     27
                      A                      A                      A
 Frequencies --    895.3224               913.5783               928.7956
 Red. masses --      2.5210                 2.3485                 1.7089
 Frc consts  --      1.1906                 1.1549                 0.8686
 IR Inten    --     14.7398                19.8644                24.5209

                     28                     29                     30
                      A                      A                      A
 Frequencies --    948.3894               981.4845               997.3483
 Red. masses --      2.2296                 2.1543                 1.5707
 Frc consts  --      1.1816                 1.2227                 0.9205
 IR Inten    --     34.1196                43.4377                 7.5907

                     31                     32                     33
                      A                      A                      A
 Frequencies --   1021.8690              1044.3154              1059.9319
 Red. masses --      2.1719                 2.3389                 1.7295
 Frc consts  --      1.3362                 1.5029                 1.1448
 IR Inten    --     54.8296                72.1332                23.3949

                     34                     35                     36
                      A                      A                      A
 Frequencies --   1062.1690              1072.7830              1117.3975
 Red. masses --      1.6022                 2.1628                 4.2241
 Frc consts  --      1.0650                 1.4665                 3.1074
 IR Inten    --     57.3133                34.0706               238.3626

                     37                     38                     39
                      A                      A                      A
 Frequencies --   1144.8819              1155.5848              1170.8921
 Red. masses --      2.2736                 3.0627                 2.3184
 Frc consts  --      1.7559                 2.4097                 1.8727
 IR Inten    --     12.5049               143.7852                15.3012

                     40                     41                     42
                      A                      A                      A
 Frequencies --   1183.3009              1190.0960              1211.0633
 Red. masses --      3.5620                 2.3757                 1.4381
 Frc consts  --      2.9385                 1.9824                 1.2428
 IR Inten    --    224.3145                33.2317                33.2589

                     43                     44                     45
                      A                      A                      A
 Frequencies --   1215.0285              1233.6120              1253.0484
 Red. masses --      1.5840                 1.6252                 1.4744
 Frc consts  --      1.3777                 1.4572                 1.3639
 IR Inten    --     70.6757                42.8781                13.4463

                     46                     47                     48
                      A                      A                      A
 Frequencies --   1288.0580              1302.3056              1319.2124
 Red. masses --      1.2192                 1.1755                 1.1498
 Frc consts  --      1.1918                 1.1746                 1.1789
 IR Inten    --     19.1798                18.3225                 7.9699

                     49                     50                     51
                      A                      A                      A
 Frequencies --   1330.3329              1350.4572              1351.4406
 Red. masses --      1.2601                 1.2375                 1.2591
 Frc consts  --      1.3140                 1.3297                 1.3549
 IR Inten    --      7.9638                11.5235                 2.0091

                     52                     53                     54
                      A                      A                      A
 Frequencies --   1361.4595              1384.3434              1384.8072
 Red. masses --      1.3518                 1.4344                 1.4529
 Frc consts  --      1.4763                 1.6196                 1.6416
 IR Inten    --      5.1668                 3.7679                 1.0129

                     55                     56                     57
                      A                      A                      A
 Frequencies --   1392.5933              1397.8679              1406.8841
 Red. masses --      1.6788                 1.2449                 1.4158
 Frc consts  --      1.9182                 1.4332                 1.6511
 IR Inten    --      6.1543                14.1452                 6.7686

                     58                     59                     60
                      A                      A                      A
 Frequencies --   1416.8368              1418.3763              1430.7622
 Red. masses --      1.4782                 1.3537                 1.4895
 Frc consts  --      1.7484                 1.6046                 1.7965
 IR Inten    --     13.6833                13.3036                 5.4005

                     61                     62                     63
                      A                      A                      A
 Frequencies --   1432.8067              1475.8858              1481.5719
 Red. masses --      1.3551                 1.1035                 1.0857
 Frc consts  --      1.6390                 1.4162                 1.4041
 IR Inten    --     22.5541                 4.9463                 7.1350

                     64                     65                     66
                      A                      A                      A
 Frequencies --   1483.4010              1494.0187              1499.4335
 Red. masses --      1.0944                 1.1103                 1.0878
 Frc consts  --      1.4189                 1.4601                 1.4410
 IR Inten    --      9.5513                14.6363                 3.7494

                     67                     68                     69
                      A                      A                      A
 Frequencies --   1502.6846              1509.3260              1515.9800
 Red. masses --      1.1023                 1.0930                 1.1008
 Frc consts  --      1.4666                 1.4670                 1.4905
 IR Inten    --      4.8821                 3.4902                 7.1020

                     70                     71                     72
                      A                      A                      A
 Frequencies --   3013.9666              3019.8618              3025.6254
 Red. masses --      1.0729                 1.0707                 1.0782
 Frc consts  --      5.7424                 5.7532                 5.8154
 IR Inten    --     11.1775                72.0184               109.5099

                     73                     74                     75
                      A                      A                      A
 Frequencies --   3052.6924              3054.9066              3062.9213
 Red. masses --      1.0689                 1.0684                 1.0628
 Frc consts  --      5.8687                 5.8748                 5.8748
 IR Inten    --     41.5005                41.6647                41.1366

                     76                     77                     78
                      A                      A                      A
 Frequencies --   3071.9016              3073.2340              3078.6995
 Red. masses --      1.0617                 1.0625                 1.0626
 Frc consts  --      5.9030                 5.9125                 5.9344
 IR Inten    --     48.1172                27.3221                20.6688

                     79                     80                     81
                      A                      A                      A
 Frequencies --   3112.7740              3116.8176              3119.2250
 Red. masses --      1.0966                 1.0891                 1.1011
 Frc consts  --      6.2604                 6.2339                 6.3121
 IR Inten    --     63.5974                 9.6611                67.3395

                     82                     83                     84
                      A                      A                      A
 Frequencies --   3120.1048              3130.9255              3131.8063
 Red. masses --      1.1005                 1.1030                 1.0946
 Frc consts  --      6.3124                 6.3707                 6.3253
 IR Inten    --     70.7890                38.4341                44.2874

                     85                     86                     87
                      A                      A                      A
 Frequencies --   3133.5394              3134.1647              3135.4225
 Red. masses --      1.0949                 1.0984                 1.0976
 Frc consts  --      6.3341                 6.3573                 6.3575
 IR Inten    --     42.5351                38.0743                27.2874

 - Thermochemistry -
 -------------------
 Temperature   298.150 Kelvin.  Pressure   1.00000 Atm.
 Atom     1 has atomic number  6 and mass  12.00000

 Molecular mass:   186.12559 amu.
 Principal axes and moments of inertia in atomic units:
                           1         2         3
     Eigenvalues --   911.819344388.649124661.75930
           X            0.99988   0.01278   0.00849
           Y           -0.01244   0.99914  -0.03949
           Z           -0.00899   0.03938   0.99918
 This molecule is an asymmetric top.
 Rotational symmetry number  1.
 Warning -- assumption of classical behavior for rotation
           may cause significant error
 Rotational temperatures (Kelvin)      0.09499     0.01974     0.01858
 Rotational constants (GHZ):           1.97927     0.41123     0.38714
 Zero-point vibrational energy     737273.9 (Joules/Mol)
                                  176.21269 (Kcal/Mol)
 Warning -- explicit consideration of  17 degrees of freedom as
           vibrations may cause significant error
 Vibrational temperatures:     18.39    86.28   137.95   216.73   288.73
          (Kelvin)            322.65   377.85   378.41   495.53   523.08
                              547.03   630.06   643.71   664.86   700.30
                              775.69   831.56   915.04  1036.05  1186.36
                             1199.69  1209.36  1277.58  1280.57  1288.17
                             1314.44  1336.33  1364.52  1412.14  1434.96
                             1470.24  1502.54  1525.01  1528.22  1543.50
                             1607.69  1647.23  1662.63  1684.65  1702.51
                             1712.28  1742.45  1748.16  1774.89  1802.86
                             1853.23  1873.73  1898.05  1914.05  1943.01
                             1944.42  1958.84  1991.76  1992.43  2003.63
                             2011.22  2024.19  2038.51  2040.73  2058.55
                             2061.49  2123.47  2131.65  2134.28  2149.56
                             2157.35  2162.03  2171.58  2181.16  4336.43
                             4344.91  4353.20  4392.14  4395.33  4406.86
                             4419.78  4421.70  4429.56  4478.59  4484.41
                             4487.87  4489.13  4504.70  4505.97  4508.46
                             4509.36  4511.17

 Zero-point correction=                           0.280813 (Hartree/Particle)
 Thermal correction to Energy=                    0.292569
 Thermal correction to Enthalpy=                  0.293513
 Thermal correction to Gibbs Free Energy=         0.241562
 Sum of electronic and zero-point Energies=           -617.220499
 Sum of electronic and thermal Energies=              -617.208743
 Sum of electronic and thermal Enthalpies=            -617.207799
 Sum of electronic and thermal Free Energies=         -617.259750

                     E (Thermal)             CV                S
                      KCal/Mol        Cal/Mol-Kelvin    Cal/Mol-Kelvin
 Total                  183.590             46.648            109.340
 Electronic               0.000              0.000              0.000
 Translational            0.889              2.981             41.570
 Rotational               0.889              2.981             31.301
 Vibrational            181.812             40.686             36.469
 Vibration     1          0.593              1.987              7.523
 Vibration     2          0.597              1.973              4.458
 Vibration     3          0.603              1.952              3.536
 Vibration     4          0.618              1.902              2.664
 Vibration     5          0.638              1.839              2.127
 Vibration     6          0.649              1.804              1.924
 Vibration     7          0.670              1.741              1.644
 Vibration     8          0.670              1.741              1.642
 Vibration     9          0.723              1.587              1.192
 Vibration    10          0.737              1.547              1.107
 Vibration    11          0.750              1.512              1.038
 Vibration    12          0.798              1.388              0.833
 Vibration    13          0.807              1.367              0.804
 Vibration    14          0.820              1.334              0.760
 Vibration    15          0.843              1.279              0.692
 Vibration    16          0.894              1.164              0.567
 Vibration    17          0.934              1.079              0.489

 Optimization completed.
    -- Stationary point found.
 Normal termination of Gaussian 16 at Sun Nov  4 22:48:50 2018.
