 Gaussian 16, Revision A.03,
 Gaussian 16:  ES64L-G16RevA.03 25-Dec-2016

 ----------------------------------------------------------------------
 #M062X/6-311++G(2d,2p) opt=ModRedundant freq=noraman SCRF=(Solvent=Wat
 er)
 ----------------------------------------------------------------------

 ---------------------------
 D_1a_4e_D_PSI.inp_extract_0
 ---------------------------
 Symbolic Z-matrix:
 Charge =  0 Multiplicity = 1

 SCF Done:  E(RM062X) =  -617.498295367     A.U. after   12 cycles
 SCF Done:  E(RM062X) =  -617.500048467     A.U. after   11 cycles
 SCF Done:  E(RM062X) =  -617.500359991     A.U. after   10 cycles
 SCF Done:  E(RM062X) =  -617.500459272     A.U. after    9 cycles
 SCF Done:  E(RM062X) =  -617.500469961     A.U. after    9 cycles
 SCF Done:  E(RM062X) =  -617.500470845     A.U. after    8 cycles
 SCF Done:  E(RM062X) =  -617.500470979     A.U. after    7 cycles
 Optimization completed.
    -- Stationary point found.
 Normal termination of Gaussian 16 at Sun Nov  4 22:00:04 2018.

 ----------------------------------------------------------------------
 #N Geom=AllCheck Guess=TCheck SCRF=Check GenChk RM062X/6-311++G(2d,2p)
  Freq
 ----------------------------------------------------------------------

 Structure from the checkpoint file:  "D_1a_4e_D_PSI.inp_extract_0.chk"
 ---------------------------
 D_1a_4e_D_PSI.inp_extract_0
 ---------------------------
 Charge =  0 Multiplicity = 1

                         Standard orientation:
 ---------------------------------------------------------------------
 Center     Atomic      Atomic             Coordinates (Angstroms)
 Number     Number       Type             X           Y           Z
 ---------------------------------------------------------------------
      1          6           0       -3.609727    0.569195   -0.187721
      2          6           0       -1.009896   -0.390570    0.590821
      3          6           0        1.055423   -0.199570   -0.657032
      4          6           0       -3.232686   -0.885657   -0.463090
      5          8           0        3.261100   -1.067226   -0.168068
      6          6           0        3.658760    0.155132    0.441264
      7          6           0       -2.355063    1.425623   -0.141672
      8          6           0        1.424474    1.155231   -0.067027
      9          6           0        1.875700   -1.309791   -0.002068
     10          6           0        2.938989    1.341274   -0.180207
     11          8           0       -1.425237    0.938536    0.825784
     12          8           0       -0.334220   -0.507587   -0.638336
     13          6           0       -2.195491   -1.343075    0.561542
     14          1           0       -4.125601    0.641378    0.772900
     15          1           0       -4.281985    0.954679   -0.954890
     16          1           0        1.314704   -0.193200   -1.718101
     17          1           0       -4.111030   -1.528805   -0.420966
     18          1           0       -2.815203   -0.970141   -1.468369
     19          1           0        4.735660    0.226415    0.305138
     20          1           0        3.446736    0.107405    1.516521
     21          1           0       -1.875491    1.448789   -1.124039
     22          1           0       -2.578529    2.447780    0.155894
     23          1           0        1.132418    1.190683    0.984971
     24          1           0        0.882370    1.947784   -0.582527
     25          1           0        3.229477    1.420313   -1.230065
     26          1           0        3.251485    2.258803    0.318702
     27          1           0       -2.639998   -1.348113    1.558527
     28          1           0       -1.834387   -2.348461    0.348691
     29          1           0       -0.344266   -0.621096    1.422723
     30          1           0        1.641639   -1.385830    1.066568
     31          1           0        1.655964   -2.264917   -0.475589
 ---------------------------------------------------------------------

 SCF Done:  E(RM062X) =  -617.500470979     A.U. after    1 cycles

 The electronic state is 1-A.
 Alpha  occ. eigenvalues --  -19.63313 -19.63200 -19.62692 -10.63521 -10.58892
 Alpha  occ. eigenvalues --  -10.58125 -10.58091 -10.57625 -10.53265 -10.53128
 Alpha  occ. eigenvalues --  -10.53032 -10.52963 -10.52807  -1.19868  -1.16664
 Alpha  occ. eigenvalues --   -1.13355  -0.90927  -0.89601  -0.87208  -0.84688
 Alpha  occ. eigenvalues --   -0.74742  -0.74201  -0.72948  -0.70960  -0.66766
 Alpha  occ. eigenvalues --   -0.62558  -0.60378  -0.58801  -0.56545  -0.55195
 Alpha  occ. eigenvalues --   -0.54446  -0.53215  -0.52534  -0.50658  -0.49801
 Alpha  occ. eigenvalues --   -0.48824  -0.46502  -0.46199  -0.45312  -0.44944
 Alpha  occ. eigenvalues --   -0.44100  -0.42990  -0.40717  -0.40220  -0.39449
 Alpha  occ. eigenvalues --   -0.38434  -0.37700  -0.36911  -0.35022  -0.33034
 Alpha  occ. eigenvalues --   -0.31712
 Alpha virt. eigenvalues --   -0.00053   0.00697   0.00817   0.01100   0.02185
 Alpha virt. eigenvalues --    0.02523   0.02636   0.03324   0.03553   0.04383
 Alpha virt. eigenvalues --    0.04604   0.04940   0.05613   0.05925   0.06874

 Mulliken charges:
               1
     1  C   -0.433599
     2  C   -0.003101
     3  C   -0.307473
     4  C   -0.277162
     5  O   -0.340384
     6  C   -0.186041
     7  C   -0.077590
     8  C   -0.078015
     9  C   -0.193104
    10  C   -0.531418
    11  O   -0.239326
    12  O   -0.297517
    13  C   -0.466676
    14  H    0.162121
    15  H    0.171555
    16  H    0.252480
    17  H    0.186069
    18  H    0.177056
    19  H    0.221635
    20  H    0.135918
    21  H    0.144870
    22  H    0.200011
    23  H    0.225574
    24  H    0.175921
    25  H    0.175905
    26  H    0.168228
    27  H    0.192080
    28  H    0.173740
    29  H    0.286324
    30  H    0.183959
    31  H    0.197961
 Sum of Mulliken charges =  -0.00000

 Dipole moment (field-independent basis, Debye):
    X=             -1.0992    Y=              0.9576    Z=              0.6074  Tot=              1.5793
 Quadrupole moment (field-independent basis, Debye-Ang):
   XX=            -78.2442   YY=            -79.9822   ZZ=            -80.9677
   XY=              6.7654   XZ=              3.5312   YZ=             -3.8055

  Exact polarizability: 175.384   1.419 160.149   0.436  -1.221 148.539
 Approx polarizability: 146.693   0.129 142.455  -0.803   0.699 142.676

                      1                      2                      3
                      A                      A                      A
 Frequencies --     42.5982                72.6484                91.2995
 Red. masses --      3.8361                 3.4631                 3.4535
 Frc consts  --      0.0041                 0.0108                 0.0170
 IR Inten    --      1.3057                 0.1736                 2.7777

                      4                      5                      6
                      A                      A                      A
 Frequencies --    131.5702               207.6478               227.4793
 Red. masses --      3.2673                 2.9895                 3.4114
 Frc consts  --      0.0333                 0.0759                 0.1040
 IR Inten    --      1.9369                 2.9153                 2.5549

                      7                      8                      9
                      A                      A                      A
 Frequencies --    249.0872               290.8489               325.7435
 Red. masses --      2.0671                 2.3213                 2.9883
 Frc consts  --      0.0756                 0.1157                 0.1868
 IR Inten    --      6.0836                 0.2995                11.4136

                     10                     11                     12
                      A                      A                      A
 Frequencies --    369.7474               390.4801               434.0724
 Red. masses --      2.3049                 2.3946                 3.3907
 Frc consts  --      0.1857                 0.2151                 0.3764
 IR Inten    --     14.1283                13.6020                 5.2519

                     13                     14                     15
                      A                      A                      A
 Frequencies --    438.3478               460.9883               492.5605
 Red. masses --      2.6678                 3.5442                 2.6640
 Frc consts  --      0.3020                 0.4438                 0.3808
 IR Inten    --      4.6892                 1.8142                 2.1214

                     16                     17                     18
                      A                      A                      A
 Frequencies --    539.7729               575.5671               634.3244
 Red. masses --      1.9717                 2.6110                 3.9053
 Frc consts  --      0.3385                 0.5096                 0.9258
 IR Inten    --      7.7745                11.3156                 6.7483

                     19                     20                     21
                      A                      A                      A
 Frequencies --    711.0088               820.8210               836.9844
 Red. masses --      2.8979                 2.0528                 1.5854
 Frc consts  --      0.8631                 0.8149                 0.6544
 IR Inten    --      1.9205                 1.2076                 1.8355

                     22                     23                     24
                      A                      A                      A
 Frequencies --    844.8521               874.0578               888.4670
 Red. masses --      3.3229                 1.3982                 2.3897
 Frc consts  --      1.3974                 0.6294                 1.1114
 IR Inten    --      9.3610                10.0840                14.6709

                     25                     26                     27
                      A                      A                      A
 Frequencies --    895.4768               906.1068               930.0423
 Red. masses --      2.3962                 2.3534                 1.7857
 Frc consts  --      1.1321                 1.1384                 0.9100
 IR Inten    --     17.2795                28.3537                34.4141

                     28                     29                     30
                      A                      A                      A
 Frequencies --    946.6687               979.6000               994.7181
 Red. masses --      2.3924                 1.7122                 1.7048
 Frc consts  --      1.2632                 0.9681                 0.9938
 IR Inten    --     30.9553                73.0747                 5.8223

                     31                     32                     33
                      A                      A                      A
 Frequencies --   1008.8006              1044.5756              1052.4111
 Red. masses --      2.1554                 2.1659                 1.7355
 Frc consts  --      1.2924                 1.3924                 1.1325
 IR Inten    --     46.1631                60.2737                18.5232

                     34                     35                     36
                      A                      A                      A
 Frequencies --   1064.4025              1073.1234              1123.5367
 Red. masses --      1.5158                 2.3112                 4.6224
 Frc consts  --      1.0118                 1.5682                 3.4379
 IR Inten    --     73.6118                14.8688               308.5965

                     37                     38                     39
                      A                      A                      A
 Frequencies --   1146.6384              1151.4020              1158.7252
 Red. masses --      2.7738                 2.1766                 2.8744
 Frc consts  --      2.1487                 1.7002                 2.2738
 IR Inten    --     58.2249                17.4437                81.0872

                     40                     41                     42
                      A                      A                      A
 Frequencies --   1169.8570              1192.2051              1209.6782
 Red. masses --      3.9575                 2.3747                 1.4427
 Frc consts  --      3.1911                 1.9886                 1.2438
 IR Inten    --    165.6195                52.6219                26.4185

                     43                     44                     45
                      A                      A                      A
 Frequencies --   1214.7470              1234.2764              1252.5657
 Red. masses --      1.4868                 1.6605                 1.5259
 Frc consts  --      1.2926                 1.4905                 1.4105
 IR Inten    --     18.6492                59.1796                14.7123

                     46                     47                     48
                      A                      A                      A
 Frequencies --   1287.2991              1307.2166              1318.9167
 Red. masses --      1.2127                 1.1844                 1.1507
 Frc consts  --      1.1841                 1.1924                 1.1793
 IR Inten    --     12.2100                10.4956                 9.1494

                     49                     50                     51
                      A                      A                      A
 Frequencies --   1332.4771              1344.4533              1358.6526
 Red. masses --      1.3218                 1.2728                 1.3430
 Frc consts  --      1.3828                 1.3555                 1.4606
 IR Inten    --      4.5257                14.4249                 8.7679

                     52                     53                     54
                      A                      A                      A
 Frequencies --   1366.2625              1382.9183              1386.3257
 Red. masses --      1.2672                 1.4286                 1.4704
 Frc consts  --      1.3937                 1.6097                 1.6650
 IR Inten    --     10.1220                 3.0917                 0.9223

                     55                     56                     57
                      A                      A                      A
 Frequencies --   1391.9308              1398.3846              1403.5345
 Red. masses --      1.6944                 1.3556                 1.3711
 Frc consts  --      1.9342                 1.5618                 1.5914
 IR Inten    --      6.0070                 5.9805                15.2308

                     58                     59                     60
                      A                      A                      A
 Frequencies --   1412.2153              1416.6698              1432.0070
 Red. masses --      1.3427                 1.4058                 1.3934
 Frc consts  --      1.5778                 1.6623                 1.6836
 IR Inten    --     30.8156                 6.6795                16.1557

                     61                     62                     63
                      A                      A                      A
 Frequencies --   1438.2311              1477.1313              1481.3439
 Red. masses --      1.2663                 1.1052                 1.0930
 Frc consts  --      1.5433                 1.4208                 1.4131
 IR Inten    --      9.9417                 4.3438                 7.0058

                     64                     65                     66
                      A                      A                      A
 Frequencies --   1482.9117              1491.3847              1495.4874
 Red. masses --      1.0850                 1.1211                 1.1079
 Frc consts  --      1.4058                 1.4692                 1.4599
 IR Inten    --      8.0331                 9.2531                15.9291

                     67                     68                     69
                      A                      A                      A
 Frequencies --   1500.5286              1509.5312              1513.4949
 Red. masses --      1.0880                 1.0937                 1.1030
 Frc consts  --      1.4433                 1.4683                 1.4886
 IR Inten    --      0.1208                 3.6049                 9.7830

                     70                     71                     72
                      A                      A                      A
 Frequencies --   3019.4750              3026.6779              3057.0596
 Red. masses --      1.0705                 1.0686                 1.0687
 Frc consts  --      5.7507                 5.7676                 5.8843
 IR Inten    --     65.2799                59.0807                41.7619

                     73                     74                     75
                      A                      A                      A
 Frequencies --   3063.8825              3066.8370              3068.9927
 Red. masses --      1.0623                 1.0677                 1.0648
 Frc consts  --      5.8754                 5.9169                 5.9089
 IR Inten    --     50.7166                15.9124                12.0796

                     76                     77                     78
                      A                      A                      A
 Frequencies --   3072.7662              3076.6837              3078.0226
 Red. masses --      1.0635                 1.0632                 1.0750
 Frc consts  --      5.9163                 5.9298                 6.0005
 IR Inten    --     27.2881                45.7301                51.3827

                     79                     80                     81
                      A                      A                      A
 Frequencies --   3106.4782              3113.4097              3116.6234
 Red. masses --      1.0857                 1.0977                 1.0996
 Frc consts  --      6.1728                 6.2689                 6.2932
 IR Inten    --     60.1963                30.2752                39.3868

                     82                     83                     84
                      A                      A                      A
 Frequencies --   3119.2155              3123.4675              3129.5580
 Red. masses --      1.1022                 1.1038                 1.1033
 Frc consts  --      6.3184                 6.3449                 6.3667
 IR Inten    --     64.6287                58.1804                44.3136

                     85                     86                     87
                      A                      A                      A
 Frequencies --   3131.9706              3133.8954              3135.4105
 Red. masses --      1.0958                 1.0994                 1.0952
 Frc consts  --      6.3330                 6.3619                 6.3435
 IR Inten    --     44.8184                48.4524                41.7129

 - Thermochemistry -
 -------------------
 Temperature   298.150 Kelvin.  Pressure   1.00000 Atm.
 Atom     1 has atomic number  6 and mass  12.00000

 Molecular mass:   186.12559 amu.
 Principal axes and moments of inertia in atomic units:
                           1         2         3
     Eigenvalues --   903.803644178.063934679.21014
           X            0.99991   0.01257   0.00555
           Y           -0.01240   0.99949  -0.02932
           Z           -0.00592   0.02925   0.99955
 This molecule is an asymmetric top.
 Rotational symmetry number  1.
 Warning -- assumption of classical behavior for rotation
           may cause significant error
 Rotational temperatures (Kelvin)      0.09583     0.02073     0.01851
 Rotational constants (GHZ):           1.99683     0.43196     0.38569
 Zero-point vibrational energy     737319.9 (Joules/Mol)
                                  176.22369 (Kcal/Mol)
 Warning -- explicit consideration of  17 degrees of freedom as
           vibrations may cause significant error
 Vibrational temperatures:     61.29   104.52   131.36   189.30   298.76
          (Kelvin)            327.29   358.38   418.47   468.67   531.98
                              561.81   624.53   630.68   663.26   708.68
                              776.61   828.11   912.65  1022.98  1180.98
                             1204.23  1215.55  1257.57  1278.31  1288.39
                             1303.69  1338.12  1362.05  1409.43  1431.18
                             1451.44  1502.91  1514.18  1531.44  1543.99
                             1616.52  1649.76  1656.61  1667.15  1683.16
                             1715.32  1740.46  1747.75  1775.85  1802.16
                             1852.14  1880.79  1897.63  1917.14  1934.37
                             1954.80  1965.75  1989.71  1994.61  2002.68
                             2011.96  2019.37  2031.86  2038.27  2060.34
                             2069.29  2125.26  2131.32  2133.58  2145.77
                             2151.67  2158.93  2171.88  2177.58  4344.35
                             4354.71  4398.43  4408.24  4412.49  4415.60
                             4421.03  4426.66  4428.59  4469.53  4479.50
                             4484.13  4487.86  4493.97  4502.74  4506.21
                             4508.98  4511.16

 Zero-point correction=                           0.280830 (Hartree/Particle)
 Thermal correction to Energy=                    0.292530
 Thermal correction to Enthalpy=                  0.293474
 Thermal correction to Gibbs Free Energy=         0.242733
 Sum of electronic and zero-point Energies=           -617.219641
 Sum of electronic and thermal Energies=              -617.207941
 Sum of electronic and thermal Enthalpies=            -617.206997
 Sum of electronic and thermal Free Energies=         -617.257738

                     E (Thermal)             CV                S
                      KCal/Mol        Cal/Mol-Kelvin    Cal/Mol-Kelvin
 Total                  183.565             46.724            106.795
 Electronic               0.000              0.000              0.000
 Translational            0.889              2.981             41.570
 Rotational               0.889              2.981             31.247
 Vibrational            181.788             40.763             33.978
 Vibration     1          0.595              1.980              5.134
 Vibration     2          0.599              1.967              4.080
 Vibration     3          0.602              1.955              3.632
 Vibration     4          0.612              1.922              2.923
 Vibration     5          0.641              1.829              2.064
 Vibration     6          0.651              1.799              1.899
 Vibration     7          0.662              1.764              1.737
 Vibration     8          0.687              1.691              1.469
 Vibration     9          0.710              1.624              1.281
 Vibration    10          0.742              1.534              1.081
 Vibration    11          0.758              1.491              0.998
 Vibration    12          0.795              1.396              0.845
 Vibration    13          0.799              1.387              0.832
 Vibration    14          0.819              1.337              0.763
 Vibration    15          0.848              1.267              0.677
 Vibration    16          0.895              1.162              0.566
 Vibration    17          0.932              1.084              0.494

 Optimization completed.
    -- Stationary point found.
 Normal termination of Gaussian 16 at Sun Nov  4 22:55:44 2018.
