 Gaussian 16, Revision A.03,
 Gaussian 16:  ES64L-G16RevA.03 25-Dec-2016

 ----------------------------------------------------------------------
 #M062X/6-311++G(2d,2p) opt=ModRedundant freq=noraman SCRF=(Solvent=Wat
 er)
 ----------------------------------------------------------------------

 ----------------------------
 D_1a_4e_D_PSI.inp_extract_13
 ----------------------------
 Symbolic Z-matrix:
 Charge =  0 Multiplicity = 1

 SCF Done:  E(RM062X) =  -617.502912224     A.U. after   12 cycles
 SCF Done:  E(RM062X) =  -617.504730518     A.U. after   11 cycles
 SCF Done:  E(RM062X) =  -617.504875981     A.U. after   10 cycles
 SCF Done:  E(RM062X) =  -617.504942594     A.U. after   10 cycles
 SCF Done:  E(RM062X) =  -617.504945517     A.U. after    8 cycles
 SCF Done:  E(RM062X) =  -617.504945951     A.U. after    7 cycles
 Optimization completed.
    -- Stationary point found.
 Normal termination of Gaussian 16 at Mon Nov  5 04:20:04 2018.

 ----------------------------------------------------------------------
 #N Geom=AllCheck Guess=TCheck SCRF=Check GenChk RM062X/6-311++G(2d,2p)
  Freq
 ----------------------------------------------------------------------

 Structure from the checkpoint file:  "D_1a_4e_D_PSI.inp_extract_13.chk"
 ----------------------------
 D_1a_4e_D_PSI.inp_extract_13
 ----------------------------
 Charge =  0 Multiplicity = 1

                         Standard orientation:
 ---------------------------------------------------------------------
 Center     Atomic      Atomic             Coordinates (Angstroms)
 Number     Number       Type             X           Y           Z
 ---------------------------------------------------------------------
      1          6           0        3.372982    0.843125    0.527900
      2          6           0        1.289041   -0.639703   -0.796998
      3          6           0       -1.032524   -0.398356   -0.293925
      4          6           0        3.133041   -0.614591    0.915080
      5          8           0       -2.663049    1.399771   -0.210798
      6          6           0       -3.634567    0.567959    0.409057
      7          6           0        2.077340    1.451715    0.021173
      8          6           0       -2.051869   -1.358622    0.297168
      9          6           0       -1.343934    1.030056    0.146901
     10          6           0       -3.468470   -0.880563   -0.019440
     11          8           0        1.547215    0.717757   -1.084718
     12          8           0        0.261955   -0.785679    0.150676
     13          6           0        2.522533   -1.356232   -0.272240
     14          1           0        4.128149    0.899205   -0.259753
     15          1           0        3.734379    1.423898    1.376949
     16          1           0       -1.073734   -0.443007   -1.387855
     17          1           0        4.062130   -1.095044    1.219462
     18          1           0        2.449925   -0.657338    1.765916
     19          1           0       -4.605398    0.961695    0.116016
     20          1           0       -3.539111    0.652174    1.498593
     21          1           0        1.339623    1.478476    0.828433
     22          1           0        2.221993    2.465808   -0.344755
     23          1           0       -1.903431   -1.384509    1.380583
     24          1           0       -1.875921   -2.364149   -0.084452
     25          1           0       -3.656890   -0.954848   -1.092596
     26          1           0       -4.206874   -1.500750    0.488807
     27          1           0        3.245766   -1.399164   -1.088651
     28          1           0        2.249337   -2.378246   -0.013681
     29          1           0        0.964949   -1.063178   -1.750312
     30          1           0       -1.211671    1.099319    1.234804
     31          1           0       -0.673633    1.736125   -0.336842
 ---------------------------------------------------------------------

 SCF Done:  E(RM062X) =  -617.504945951     A.U. after    1 cycles

 The electronic state is 1-A.
 Alpha  occ. eigenvalues --  -19.63475 -19.63109 -19.63095 -10.63624 -10.58817
 Alpha  occ. eigenvalues --  -10.58036 -10.57870 -10.57849 -10.53274 -10.53213
 Alpha  occ. eigenvalues --  -10.53128 -10.53055 -10.52926  -1.20208  -1.16581
 Alpha  occ. eigenvalues --   -1.13593  -0.91145  -0.89866  -0.87329  -0.84401
 Alpha  occ. eigenvalues --   -0.74536  -0.74098  -0.73074  -0.71084  -0.65763
 Alpha  occ. eigenvalues --   -0.64191  -0.60059  -0.58940  -0.57233  -0.55597
 Alpha  occ. eigenvalues --   -0.54435  -0.53349  -0.52312  -0.50623  -0.50026
 Alpha  occ. eigenvalues --   -0.47834  -0.47375  -0.45923  -0.45420  -0.44477
 Alpha  occ. eigenvalues --   -0.43954  -0.43612  -0.40613  -0.40022  -0.39034
 Alpha  occ. eigenvalues --   -0.38759  -0.38093  -0.36512  -0.35914  -0.33365
 Alpha  occ. eigenvalues --   -0.31874
 Alpha virt. eigenvalues --   -0.00042   0.00754   0.00778   0.01135   0.02171
 Alpha virt. eigenvalues --    0.02494   0.02590   0.03386   0.03757   0.04368
 Alpha virt. eigenvalues --    0.04641   0.04711   0.05507   0.05967   0.07168

 Mulliken charges:
               1
     1  C   -0.378149
     2  C   -0.136965
     3  C    0.060583
     4  C   -0.290928
     5  O   -0.324895
     6  C   -0.109091
     7  C   -0.135167
     8  C   -0.281126
     9  C   -0.502723
    10  C   -0.382639
    11  O   -0.285089
    12  O   -0.270134
    13  C   -0.367238
    14  H    0.168354
    15  H    0.171540
    16  H    0.237364
    17  H    0.186012
    18  H    0.172455
    19  H    0.208196
    20  H    0.129478
    21  H    0.125800
    22  H    0.212399
    23  H    0.197739
    24  H    0.163961
    25  H    0.163121
    26  H    0.182944
    27  H    0.190009
    28  H    0.184190
    29  H    0.239747
    30  H    0.226833
    31  H    0.243416
 Sum of Mulliken charges =  -0.00000

 Dipole moment (field-independent basis, Debye):
    X=              0.5573    Y=             -1.8584    Z=              1.3769  Tot=              2.3790
 Quadrupole moment (field-independent basis, Debye-Ang):
   XX=            -71.5283   YY=            -81.7228   ZZ=            -81.4491
   XY=              5.4952   XZ=             -0.9143   YZ=              4.8259

  Exact polarizability: 176.278   1.914 159.050   0.699   1.940 150.391
 Approx polarizability: 147.207   1.360 141.833   0.001  -0.163 143.271

                      1                      2                      3
                      A                      A                      A
 Frequencies --     39.7825                78.7633                91.3596
 Red. masses --      3.3490                 3.7942                 3.8488
 Frc consts  --      0.0031                 0.0139                 0.0189
 IR Inten    --      0.7679                 0.5462                 0.7501

                      4                      5                      6
                      A                      A                      A
 Frequencies --    142.5325               196.8207               243.6855
 Red. masses --      3.2364                 2.8691                 2.3330
 Frc consts  --      0.0387                 0.0655                 0.0816
 IR Inten    --      2.7906                 1.1646                 6.0154

                      7                      8                      9
                      A                      A                      A
 Frequencies --    257.7975               270.5217               328.0672
 Red. masses --      2.9137                 2.3723                 3.1241
 Frc consts  --      0.1141                 0.1023                 0.1981
 IR Inten    --      2.4955                 0.4949                17.3090

                     10                     11                     12
                      A                      A                      A
 Frequencies --    365.4344               383.9067               436.3703
 Red. masses --      2.0429                 2.5595                 3.2574
 Frc consts  --      0.1607                 0.2223                 0.3654
 IR Inten    --      8.8282                22.9731                 6.2380

                     13                     14                     15
                      A                      A                      A
 Frequencies --    454.3421               461.0365               487.4380
 Red. masses --      3.9385                 3.3102                 2.2026
 Frc consts  --      0.4790                 0.4146                 0.3083
 IR Inten    --      2.4395                 0.3704                 1.3209

                     16                     17                     18
                      A                      A                      A
 Frequencies --    533.4962               575.2090               623.0383
 Red. masses --      2.2498                 2.1701                 3.3924
 Frc consts  --      0.3773                 0.4230                 0.7759
 IR Inten    --      1.3077                13.9906                 1.3051

                     19                     20                     21
                      A                      A                      A
 Frequencies --    720.3310               831.6581               835.2795
 Red. masses --      2.9446                 2.0683                 1.7688
 Frc consts  --      0.9002                 0.8429                 0.7271
 IR Inten    --      2.9855                 0.4719                 4.3201

                     22                     23                     24
                      A                      A                      A
 Frequencies --    843.5208               878.4250               894.4138
 Red. masses --      2.8451                 1.3886                 2.3688
 Frc consts  --      1.1927                 0.6313                 1.1165
 IR Inten    --     10.2279                 9.2834                17.3519

                     25                     26                     27
                      A                      A                      A
 Frequencies --    900.1391               909.2873               934.8183
 Red. masses --      2.3660                 2.3928                 1.6114
 Frc consts  --      1.1295                 1.1656                 0.8297
 IR Inten    --     17.9730                18.5445                19.4773

                     28                     29                     30
                      A                      A                      A
 Frequencies --    947.0096               984.9625               995.3920
 Red. masses --      2.3212                 2.4479                 1.3691
 Frc consts  --      1.2265                 1.3992                 0.7992
 IR Inten    --     20.7033                77.1062                 6.6680

                     31                     32                     33
                      A                      A                      A
 Frequencies --   1032.4358              1046.4067              1056.4899
 Red. masses --      2.2226                 2.2369                 1.8010
 Frc consts  --      1.3959                 1.4431                 1.1844
 IR Inten    --     43.7706                52.7422                72.5556

                     34                     35                     36
                      A                      A                      A
 Frequencies --   1064.3159              1073.1164              1113.1536
 Red. masses --      1.5679                 2.1755                 4.3108
 Frc consts  --      1.0465                 1.4761                 3.1471
 IR Inten    --     54.6311                27.6971               270.5507

                     37                     38                     39
                      A                      A                      A
 Frequencies --   1148.0197              1154.4749              1162.4756
 Red. masses --      2.5756                 2.9863                 2.4638
 Frc consts  --      2.0000                 2.3451                 1.9616
 IR Inten    --     39.4069                96.3069                33.4880

                     40                     41                     42
                      A                      A                      A
 Frequencies --   1176.2909              1194.1011              1211.2002
 Red. masses --      3.5371                 2.2716                 1.3855
 Frc consts  --      2.8835                 1.9084                 1.1975
 IR Inten    --    181.4849                75.1246                17.3627

                     43                     44                     45
                      A                      A                      A
 Frequencies --   1221.3390              1236.1758              1251.7799
 Red. masses --      1.6440                 1.6190                 1.4900
 Frc consts  --      1.4448                 1.4577                 1.3756
 IR Inten    --      8.4935                59.9310                36.3357

                     46                     47                     48
                      A                      A                      A
 Frequencies --   1291.3531              1306.1313              1324.6640
 Red. masses --      1.2166                 1.1900                 1.1509
 Frc consts  --      1.1953                 1.1962                 1.1899
 IR Inten    --     18.0123                30.7091                 6.5847

                     49                     50                     51
                      A                      A                      A
 Frequencies --   1329.4318              1344.5706              1353.0538
 Red. masses --      1.2955                 1.2586                 1.2033
 Frc consts  --      1.3490                 1.3407                 1.2980
 IR Inten    --      7.1120                 7.9235                15.1236

                     52                     53                     54
                      A                      A                      A
 Frequencies --   1362.9339              1382.8929              1386.7359
 Red. masses --      1.3322                 1.4409                 1.4628
 Frc consts  --      1.4580                 1.6235                 1.6574
 IR Inten    --      4.6681                 3.0630                 3.5748

                     55                     56                     57
                      A                      A                      A
 Frequencies --   1390.8492              1395.8090              1402.3426
 Red. masses --      1.5342                 1.6672                 1.2982
 Frc consts  --      1.7486                 1.9137                 1.5042
 IR Inten    --     15.2892                 8.3007                24.5460

                     58                     59                     60
                      A                      A                      A
 Frequencies --   1406.3987              1418.8536              1433.8454
 Red. masses --      1.3777                 1.4213                 1.3740
 Frc consts  --      1.6055                 1.6858                 1.6643
 IR Inten    --     10.5090                12.1044                17.8066

                     61                     62                     63
                      A                      A                      A
 Frequencies --   1445.9961              1475.7919              1481.3016
 Red. masses --      1.3729                 1.1055                 1.0919
 Frc consts  --      1.6913                 1.4186                 1.4116
 IR Inten    --      2.6625                 4.9047                 8.0523

                     64                     65                     66
                      A                      A                      A
 Frequencies --   1483.0396              1495.6862              1496.9205
 Red. masses --      1.0874                 1.1079                 1.1213
 Frc consts  --      1.4091                 1.4602                 1.4803
 IR Inten    --      8.1948                 9.8126                13.8844

                     67                     68                     69
                      A                      A                      A
 Frequencies --   1503.2888              1509.3985              1515.8541
 Red. masses --      1.0819                 1.0937                 1.0988
 Frc consts  --      1.4405                 1.4681                 1.4876
 IR Inten    --      1.5091                 2.6189                 8.0914

                     70                     71                     72
                      A                      A                      A
 Frequencies --   3011.6854              3019.8246              3040.0582
 Red. masses --      1.0703                 1.0705                 1.0824
 Frc consts  --      5.7195                 5.7518                 5.8942
 IR Inten    --     42.0396                85.3301                31.5127

                     73                     74                     75
                      A                      A                      A
 Frequencies --   3054.5596              3058.2450              3064.0550
 Red. masses --      1.0685                 1.0659                 1.0633
 Frc consts  --      5.8739                 5.8739                 5.8818
 IR Inten    --     46.8461                43.5393                40.1144

                     76                     77                     78
                      A                      A                      A
 Frequencies --   3069.1639              3070.9007              3071.9675
 Red. masses --      1.0757                 1.0620                 1.0663
 Frc consts  --      5.9701                 5.9006                 5.9286
 IR Inten    --     36.7056                44.3704                19.4940

                     79                     80                     81
                      A                      A                      A
 Frequencies --   3082.3359              3114.4914              3115.5504
 Red. masses --      1.0688                 1.0979                 1.0981
 Frc consts  --      5.9828                 6.2745                 6.2803
 IR Inten    --     74.1848                39.4811                38.1182

                     82                     83                     84
                      A                      A                      A
 Frequencies --   3119.6290              3121.0405              3131.3895
 Red. masses --      1.1023                 1.1028                 1.1029
 Frc consts  --      6.3204                 6.3292                 6.3718
 IR Inten    --     66.2627                53.8817                37.3541

                     85                     86                     87
                      A                      A                      A
 Frequencies --   3132.9512              3135.5816              3150.2674
 Red. masses --      1.0946                 1.0983                 1.0943
 Frc consts  --      6.3304                 6.3624                 6.3985
 IR Inten    --     48.0233                50.6725                17.3607

 - Thermochemistry -
 -------------------
 Temperature   298.150 Kelvin.  Pressure   1.00000 Atm.
 Atom     1 has atomic number  6 and mass  12.00000

 Molecular mass:   186.12559 amu.
 Principal axes and moments of inertia in atomic units:
                           1         2         3
     Eigenvalues --   963.912454153.287904639.13724
           X            0.99996   0.00835   0.00245
           Y           -0.00842   0.99953   0.02962
           Z           -0.00220  -0.02964   0.99956
 This molecule is an asymmetric top.
 Rotational symmetry number  1.
 Warning -- assumption of classical behavior for rotation
           may cause significant error
 Rotational temperatures (Kelvin)      0.08986     0.02085     0.01867
 Rotational constants (GHZ):           1.87231     0.43453     0.38903
 Zero-point vibrational energy     737422.7 (Joules/Mol)
                                  176.24826 (Kcal/Mol)
 Warning -- explicit consideration of  17 degrees of freedom as
           vibrations may cause significant error
 Vibrational temperatures:     57.24   113.32   131.45   205.07   283.18
          (Kelvin)            350.61   370.91   389.22   472.02   525.78
                              552.36   627.84   653.70   663.33   701.31
                              767.58   827.60   896.41  1036.40  1196.57
                             1201.78  1213.64  1263.86  1286.86  1295.10
                             1308.26  1344.99  1362.54  1417.14  1432.15
                             1485.44  1505.55  1520.05  1531.31  1543.98
                             1601.58  1651.74  1661.03  1672.54  1692.42
                             1718.05  1742.65  1757.23  1778.58  1801.03
                             1857.97  1879.23  1905.90  1912.76  1934.54
                             1946.74  1960.96  1989.67  1995.20  2001.12
                             2008.26  2017.66  2023.49  2041.41  2062.98
                             2080.47  2123.34  2131.26  2133.76  2151.96
                             2153.73  2162.90  2171.69  2180.98  4333.14
                             4344.85  4373.97  4394.83  4400.13  4408.49
                             4415.84  4418.34  4419.88  4434.79  4481.06
                             4482.58  4488.45  4490.48  4505.37  4507.62
                             4511.40  4532.53

 Zero-point correction=                           0.280869 (Hartree/Particle)
 Thermal correction to Energy=                    0.292542
 Thermal correction to Enthalpy=                  0.293486
 Thermal correction to Gibbs Free Energy=         0.242798
 Sum of electronic and zero-point Energies=           -617.224076
 Sum of electronic and thermal Energies=              -617.212404
 Sum of electronic and thermal Enthalpies=            -617.211460
 Sum of electronic and thermal Free Energies=         -617.262148

                     E (Thermal)             CV                S
                      KCal/Mol        Cal/Mol-Kelvin    Cal/Mol-Kelvin
 Total                  183.573             46.640            106.681
 Electronic               0.000              0.000              0.000
 Translational            0.889              2.981             41.570
 Rotational               0.889              2.981             31.297
 Vibrational            181.795             40.678             33.815
 Vibration     1          0.594              1.981              5.270
 Vibration     2          0.600              1.963              3.921
 Vibration     3          0.602              1.955              3.631
 Vibration     4          0.616              1.911              2.770
 Vibration     5          0.636              1.844              2.163
 Vibration     6          0.659              1.773              1.776
 Vibration     7          0.667              1.750              1.677
 Vibration     8          0.674              1.728              1.593
 Vibration     9          0.711              1.619              1.270
 Vibration    10          0.739              1.543              1.099
 Vibration    11          0.753              1.505              1.024
 Vibration    12          0.797              1.391              0.838
 Vibration    13          0.813              1.351              0.783
 Vibration    14          0.819              1.336              0.763
 Vibration    15          0.843              1.278              0.690
 Vibration    16          0.888              1.176              0.579
 Vibration    17          0.932              1.085              0.494

 Optimization completed.
    -- Stationary point found.
 Normal termination of Gaussian 16 at Mon Nov  5 05:19:59 2018.
