 Gaussian 16, Revision A.03,
 Gaussian 16:  ES64L-G16RevA.03 25-Dec-2016

 ----------------------------------------------------------------------
 #M062X/6-311++G(2d,2p) opt=ModRedundant freq=noraman SCRF=(Solvent=Wat
 er)
 ----------------------------------------------------------------------

 ----------------------------
 D_1a_4e_D_PSI.inp_extract_19
 ----------------------------
 Symbolic Z-matrix:
 Charge =  0 Multiplicity = 1

 SCF Done:  E(RM062X) =  -617.495047711     A.U. after   12 cycles
 SCF Done:  E(RM062X) =  -617.496660766     A.U. after   11 cycles
 SCF Done:  E(RM062X) =  -617.496967068     A.U. after   11 cycles
 SCF Done:  E(RM062X) =  -617.497148058     A.U. after   10 cycles
 SCF Done:  E(RM062X) =  -617.497168440     A.U. after   10 cycles
 SCF Done:  E(RM062X) =  -617.497170073     A.U. after    8 cycles
 SCF Done:  E(RM062X) =  -617.497170352     A.U. after    8 cycles
 SCF Done:  E(RM062X) =  -617.497170364     A.U. after    7 cycles
 Optimization completed.
    -- Stationary point found.
 Normal termination of Gaussian 16 at Sun Nov  4 22:05:25 2018.

 ----------------------------------------------------------------------
 #N Geom=AllCheck Guess=TCheck SCRF=Check GenChk RM062X/6-311++G(2d,2p)
  Freq
 ----------------------------------------------------------------------

 Structure from the checkpoint file:  "D_1a_4e_D_PSI.inp_extract_19.chk"
 ----------------------------
 D_1a_4e_D_PSI.inp_extract_19
 ----------------------------
 Charge =  0 Multiplicity = 1

                         Standard orientation:
 ---------------------------------------------------------------------
 Center     Atomic      Atomic             Coordinates (Angstroms)
 Number     Number       Type             X           Y           Z
 ---------------------------------------------------------------------
      1          6           0       -3.263576    0.985374    0.507895
      2          6           0       -1.198365   -0.964357    0.016436
      3          6           0        1.060843   -0.361762   -0.735008
      4          6           0       -3.239775    0.239839   -0.825325
      5          8           0        2.986274   -0.998317    0.557524
      6          6           0        3.505535    0.325157    0.576399
      7          6           0       -1.855691    1.064174    1.073368
      8          6           0        1.576040    1.068351   -0.810186
      9          6           0        1.568911   -1.016655    0.552738
     10          6           0        3.096939    1.087787   -0.672510
     11          8           0       -1.276422   -0.232808    1.223340
     12          8           0       -0.357734   -0.338926   -0.916184
     13          6           0       -2.566145   -1.117403   -0.632511
     14          1           0       -3.904499    0.455891    1.217099
     15          1           0       -3.661099    1.993872    0.389956
     16          1           0        1.479157   -0.935047   -1.568258
     17          1           0       -4.248743    0.105540   -1.213737
     18          1           0       -2.682573    0.824660   -1.559848
     19          1           0        4.586381    0.226810    0.650798
     20          1           0        3.140367    0.842676    1.471777
     21          1           0       -1.222654    1.670521    0.419832
     22          1           0       -1.845927    1.504886    2.067764
     23          1           0        1.121744    1.636921    0.006499
     24          1           0        1.255755    1.522373   -1.748048
     25          1           0        3.556742    0.614642   -1.542739
     26          1           0        3.468278    2.111184   -0.617928
     27          1           0       -3.173929   -1.738292    0.028294
     28          1           0       -2.449041   -1.647545   -1.576611
     29          1           0       -0.806377   -1.937914    0.308311
     30          1           0        1.178181   -0.489655    1.428173
     31          1           0        1.283000   -2.064151    0.613454
 ---------------------------------------------------------------------

 SCF Done:  E(RM062X) =  -617.497170364     A.U. after    1 cycles

 The electronic state is 1-A.
 Alpha  occ. eigenvalues --  -19.63210 -19.63115 -19.62853 -10.63599 -10.58936
 Alpha  occ. eigenvalues --  -10.58206 -10.58045 -10.57703 -10.53218 -10.53119
 Alpha  occ. eigenvalues --  -10.53044 -10.52961 -10.52833  -1.19799  -1.16653
 Alpha  occ. eigenvalues --   -1.13223  -0.91060  -0.89747  -0.87065  -0.84773
 Alpha  occ. eigenvalues --   -0.75187  -0.74061  -0.72684  -0.70699  -0.66518
 Alpha  occ. eigenvalues --   -0.63023  -0.60298  -0.58578  -0.57243  -0.55930
 Alpha  occ. eigenvalues --   -0.53711  -0.53401  -0.51542  -0.51167  -0.49512
 Alpha  occ. eigenvalues --   -0.48976  -0.47061  -0.45846  -0.45570  -0.44936
 Alpha  occ. eigenvalues --   -0.43887  -0.42140  -0.41450  -0.40113  -0.39914
 Alpha  occ. eigenvalues --   -0.38357  -0.37996  -0.36362  -0.33992  -0.33180
 Alpha  occ. eigenvalues --   -0.32308
 Alpha virt. eigenvalues --   -0.00083   0.00757   0.00866   0.01010   0.02182
 Alpha virt. eigenvalues --    0.02522   0.02642   0.03285   0.03566   0.04410
 Alpha virt. eigenvalues --    0.04825   0.04932   0.05528   0.05901   0.07060

 Mulliken charges:
               1
     1  C   -0.411567
     2  C    0.024622
     3  C   -0.068544
     4  C   -0.293353
     5  O   -0.353213
     6  C   -0.174761
     7  C   -0.090000
     8  C   -0.149874
     9  C   -0.385247
    10  C   -0.371081
    11  O   -0.277584
    12  O   -0.329069
    13  C   -0.518767
    14  H    0.162294
    15  H    0.174774
    16  H    0.243243
    17  H    0.186333
    18  H    0.176762
    19  H    0.215237
    20  H    0.136584
    21  H    0.106165
    22  H    0.206891
    23  H    0.176017
    24  H    0.180070
    25  H    0.172606
    26  H    0.167137
    27  H    0.195135
    28  H    0.184787
    29  H    0.265490
    30  H    0.248454
    31  H    0.200460
 Sum of Mulliken charges =  -0.00000

 Dipole moment (field-independent basis, Debye):
    X=             -1.0693    Y=              1.8522    Z=             -0.5693  Tot=              2.2132
 Quadrupole moment (field-independent basis, Debye-Ang):
   XX=            -76.8428   YY=            -77.4120   ZZ=            -83.4324
   XY=              6.0609   XZ=             -1.1597   YZ=              2.5601

  Exact polarizability: 174.777   1.899 157.575  -0.653   1.464 152.445
 Approx polarizability: 146.856   0.320 143.898  -1.892   0.673 141.402

 ******    1 imaginary frequencies (negative Signs) ******

                      1                      2                      3
                      A                      A                      A
 Frequencies --    -72.7990                63.4721               102.2558
 Red. masses --      3.4381                 4.3106                 3.4078
 Frc consts  --      0.0107                 0.0102                 0.0210
 IR Inten    --      1.4097                 1.5398                 1.7516

                      4                      5                      6
                      A                      A                      A
 Frequencies --    147.2993               174.1138               223.5472
 Red. masses --      2.7440                 3.8032                 3.1660
 Frc consts  --      0.0351                 0.0679                 0.0932
 IR Inten    --      1.9826                 4.1775                 3.6867

                      7                      8                      9
                      A                      A                      A
 Frequencies --    243.6169               295.8255               345.5421
 Red. masses --      2.0093                 2.4885                 2.7479
 Frc consts  --      0.0703                 0.1283                 0.1933
 IR Inten    --      5.5541                 3.4409                 6.3837

                     10                     11                     12
                      A                      A                      A
 Frequencies --    362.6363               372.7118               434.0738
 Red. masses --      2.5100                 2.3407                 3.0581
 Frc consts  --      0.1945                 0.1916                 0.3395
 IR Inten    --     10.2188                13.2029                 8.6080

                     13                     14                     15
                      A                      A                      A
 Frequencies --    442.1667               463.2748               474.4630
 Red. masses --      3.1630                 3.5417                 2.5722
 Frc consts  --      0.3644                 0.4479                 0.3412
 IR Inten    --      3.9465                 1.1415                 2.1462

                     16                     17                     18
                      A                      A                      A
 Frequencies --    534.5672               566.1269               630.6531
 Red. masses --      2.0842                 2.1476                 4.4098
 Frc consts  --      0.3509                 0.4055                 1.0334
 IR Inten    --      2.9112                11.1079                 8.7106

                     19                     20                     21
                      A                      A                      A
 Frequencies --    706.6412               823.7023               834.8864
 Red. masses --      2.6964                 2.0158                 1.7296
 Frc consts  --      0.7933                 0.8058                 0.7103
 IR Inten    --      1.1344                 0.7854                 0.7017

                     22                     23                     24
                      A                      A                      A
 Frequencies --    840.9447               876.8929               889.5159
 Red. masses --      3.0880                 1.3993                 2.3622
 Frc consts  --      1.2866                 0.6339                 1.1012
 IR Inten    --     11.9005                11.1959                16.2603

                     25                     26                     27
                      A                      A                      A
 Frequencies --    896.8172               911.0563               927.2512
 Red. masses --      2.5782                 2.3524                 1.8333
 Frc consts  --      1.2217                 1.1504                 0.9287
 IR Inten    --     27.3085                12.7736                29.7109

                     28                     29                     30
                      A                      A                      A
 Frequencies --    945.2070               979.3179               997.2514
 Red. masses --      2.1073                 1.5730                 2.1752
 Frc consts  --      1.1092                 0.8888                 1.2745
 IR Inten    --     36.3650                26.6902                19.6627

                     31                     32                     33
                      A                      A                      A
 Frequencies --   1012.9949              1043.4885              1054.3950
 Red. masses --      2.0058                 2.2369                 1.7259
 Frc consts  --      1.2127                 1.4351                 1.1305
 IR Inten    --     53.9557                73.3761                28.9887

                     34                     35                     36
                      A                      A                      A
 Frequencies --   1062.6222              1072.6285              1114.7331
 Red. masses --      1.6521                 2.0737                 4.3178
 Frc consts  --      1.0991                 1.4057                 3.1612
 IR Inten    --     57.7618                27.7537               257.9628

                     37                     38                     39
                      A                      A                      A
 Frequencies --   1141.7287              1150.6651              1172.0757
 Red. masses --      2.7316                 2.6182                 2.3208
 Frc consts  --      2.0979                 2.0425                 1.8784
 IR Inten    --     85.2765               104.0927                30.4420

                     40                     41                     42
                      A                      A                      A
 Frequencies --   1179.9674              1187.1178              1207.9785
 Red. masses --      3.8380                 2.5908                 1.4008
 Frc consts  --      3.1484                 2.1511                 1.2043
 IR Inten    --    196.3081                56.6491                11.3288

                     43                     44                     45
                      A                      A                      A
 Frequencies --   1215.9398              1234.0196              1251.5567
 Red. masses --      1.5179                 1.6273                 1.5306
 Frc consts  --      1.3223                 1.4600                 1.4126
 IR Inten    --     16.4402                49.0800                 7.3026

                     46                     47                     48
                      A                      A                      A
 Frequencies --   1288.0982              1305.5961              1321.2862
 Red. masses --      1.2117                 1.1708                 1.1580
 Frc consts  --      1.1845                 1.1759                 1.1911
 IR Inten    --     14.2282                 3.9380                11.6741

                     49                     50                     51
                      A                      A                      A
 Frequencies --   1330.9431              1346.5194              1358.1866
 Red. masses --      1.2855                 1.2925                 1.2556
 Frc consts  --      1.3417                 1.3807                 1.3647
 IR Inten    --     24.1173                 8.1886                 4.7912

                     52                     53                     54
                      A                      A                      A
 Frequencies --   1365.3105              1383.1667              1386.2142
 Red. masses --      1.2665                 1.4424                 1.4590
 Frc consts  --      1.3910                 1.6258                 1.6518
 IR Inten    --      0.5531                 5.7788                 1.1449

                     55                     56                     57
                      A                      A                      A
 Frequencies --   1391.6454              1397.2195              1407.3155
 Red. masses --      1.6425                 1.2523                 1.5034
 Frc consts  --      1.8741                 1.4404                 1.7543
 IR Inten    --     15.2276                15.6671                 8.9688

                     58                     59                     60
                      A                      A                      A
 Frequencies --   1410.9755              1422.5274              1430.3684
 Red. masses --      1.3736                 1.4032                 1.3427
 Frc consts  --      1.6112                 1.6730                 1.6186
 IR Inten    --      7.1508                 9.5217                19.0707

                     61                     62                     63
                      A                      A                      A
 Frequencies --   1433.7233              1476.1647              1480.8718
 Red. masses --      1.3996                 1.1043                 1.0934
 Frc consts  --      1.6951                 1.4178                 1.4127
 IR Inten    --     15.0558                 4.4749                 7.7214

                     64                     65                     66
                      A                      A                      A
 Frequencies --   1482.9816              1493.8464              1496.3983
 Red. masses --      1.0864                 1.1109                 1.1063
 Frc consts  --      1.4077                 1.4606                 1.4596
 IR Inten    --      8.2043                 8.9393                12.9439

                     67                     68                     69
                      A                      A                      A
 Frequencies --   1502.8607              1509.1782              1516.3875
 Red. masses --      1.0842                 1.0943                 1.0980
 Frc consts  --      1.4427                 1.4685                 1.4876
 IR Inten    --      2.1950                 3.2189                 8.6590

                     70                     71                     72
                      A                      A                      A
 Frequencies --   3020.7012              3040.6695              3054.6887
 Red. masses --      1.0705                 1.0815                 1.0658
 Frc consts  --      5.7549                 5.8913                 5.8595
 IR Inten    --     71.6833                21.5673                 5.8786

                     73                     74                     75
                      A                      A                      A
 Frequencies --   3058.5127              3061.7456              3064.6097
 Red. masses --      1.0673                 1.0664                 1.0623
 Frc consts  --      5.8824                 5.8900                 5.8784
 IR Inten    --     37.8019               102.5005                44.2463

                     76                     77                     78
                      A                      A                      A
 Frequencies --   3069.9330              3072.5340              3077.4245
 Red. masses --      1.0622                 1.0634                 1.0624
 Frc consts  --      5.8980                 5.9146                 5.9279
 IR Inten    --     40.6647                30.6411                23.8050

                     79                     80                     81
                      A                      A                      A
 Frequencies --   3106.5867              3114.1650              3114.8166
 Red. masses --      1.0875                 1.0977                 1.0983
 Frc consts  --      6.1838                 6.2722                 6.2783
 IR Inten    --     51.4844                36.1093                42.6462

                     82                     83                     84
                      A                      A                      A
 Frequencies --   3119.8233              3121.1066              3130.8769
 Red. masses --      1.1021                 1.1023                 1.1028
 Frc consts  --      6.3204                 6.3266                 6.3693
 IR Inten    --     65.1190                55.3832                38.7663

                     85                     86                     87
                      A                      A                      A
 Frequencies --   3133.5079              3134.3397              3143.6567
 Red. masses --      1.0948                 1.0997                 1.0987
 Frc consts  --      6.3333                 6.3651                 6.3973
 IR Inten    --     51.4715                40.2548                49.3828

 - Thermochemistry -
 -------------------
 Temperature   298.150 Kelvin.  Pressure   1.00000 Atm.
 Atom     1 has atomic number  6 and mass  12.00000

 Molecular mass:   186.12559 amu.
 Principal axes and moments of inertia in atomic units:
                           1         2         3
     Eigenvalues --   982.332734154.429144239.61605
           X            0.99997   0.00756   0.00085
           Y           -0.00760   0.99764   0.06821
           Z           -0.00033  -0.06822   0.99767
 This molecule is an asymmetric top.
 Rotational symmetry number  1.
 Warning -- assumption of classical behavior for rotation
           may cause significant error
 Rotational temperatures (Kelvin)      0.08817     0.02085     0.02043
 Rotational constants (GHZ):           1.83720     0.43441     0.42569
    1 imaginary frequencies ignored.
 Zero-point vibrational energy     736811.3 (Joules/Mol)
                                  176.10212 (Kcal/Mol)
 Warning -- explicit consideration of  16 degrees of freedom as
           vibrations may cause significant error
 Vibrational temperatures:     91.32   147.12   211.93   250.51   321.63
          (Kelvin)            350.51   425.63   497.16   521.75   536.25
                              624.54   636.18   666.55   682.65   769.12
                              814.53   907.37  1016.70  1185.12  1201.22
                             1209.93  1261.65  1279.82  1290.32  1310.81
                             1334.11  1359.94  1409.02  1434.82  1457.47
                             1501.35  1517.04  1528.88  1543.27  1603.85
                             1642.69  1655.55  1686.36  1697.71  1708.00
                             1738.01  1749.47  1775.48  1800.71  1853.29
                             1878.46  1901.04  1914.93  1937.34  1954.13
                             1964.38  1990.07  1994.45  2002.27  2010.29
                             2024.81  2030.08  2046.70  2057.98  2062.81
                             2123.87  2130.64  2133.68  2149.31  2152.98
                             2162.28  2171.37  2181.74  4346.12  4374.85
                             4395.02  4400.52  4405.17  4409.29  4416.95
                             4420.69  4427.73  4469.69  4480.59  4481.53
                             4488.73  4490.58  4504.63  4508.42  4509.62
                             4523.02

 Zero-point correction=                           0.280637 (Hartree/Particle)
 Thermal correction to Energy=                    0.291539
 Thermal correction to Enthalpy=                  0.292484
 Thermal correction to Gibbs Free Energy=         0.244064
 Sum of electronic and zero-point Energies=           -617.216534
 Sum of electronic and thermal Energies=              -617.205631
 Sum of electronic and thermal Enthalpies=            -617.204687
 Sum of electronic and thermal Free Energies=         -617.253106

                     E (Thermal)             CV                S
                      KCal/Mol        Cal/Mol-Kelvin    Cal/Mol-Kelvin
 Total                  182.944             44.850            101.907
 Electronic               0.000              0.000              0.000
 Translational            0.889              2.981             41.570
 Rotational               0.889              2.981             31.226
 Vibrational            181.166             38.888             29.112
 Vibration     1          0.597              1.972              4.346
 Vibration     2          0.604              1.947              3.411
 Vibration     3          0.617              1.906              2.707
 Vibration     4          0.627              1.874              2.391
 Vibration     5          0.649              1.805              1.930
 Vibration     6          0.659              1.773              1.776
 Vibration     7          0.690              1.682              1.440
 Vibration     8          0.724              1.584              1.186
 Vibration     9          0.736              1.549              1.111
 Vibration    10          0.744              1.528              1.069
 Vibration    11          0.795              1.396              0.845
 Vibration    12          0.802              1.378              0.820
 Vibration    13          0.821              1.332              0.757
 Vibration    14          0.831              1.307              0.725
 Vibration    15          0.890              1.174              0.577
 Vibration    16          0.922              1.105              0.512

 Optimization completed.
    -- Stationary point found.
 Normal termination of Gaussian 16 at Sun Nov  4 22:57:44 2018.
