 Gaussian 16, Revision A.03,
 Gaussian 16:  ES64L-G16RevA.03 25-Dec-2016

 ----------------------------------------------------------------------
 #M062X/6-311++G(2d,2p) opt=ModRedundant freq=noraman SCRF=(Solvent=Wat
 er)
 ----------------------------------------------------------------------

 ---------------------------
 D_1a_4e_D_PSI.inp_extract_4
 ---------------------------
 Symbolic Z-matrix:
 Charge =  0 Multiplicity = 1

 SCF Done:  E(RM062X) =  -617.497151107     A.U. after   13 cycles
 SCF Done:  E(RM062X) =  -617.498760381     A.U. after   11 cycles
 SCF Done:  E(RM062X) =  -617.498966650     A.U. after   10 cycles
 SCF Done:  E(RM062X) =  -617.499121752     A.U. after   10 cycles
 SCF Done:  E(RM062X) =  -617.499129288     A.U. after    9 cycles
 SCF Done:  E(RM062X) =  -617.499129869     A.U. after    7 cycles
 Optimization completed.
    -- Stationary point found.
 Normal termination of Gaussian 16 at Sun Nov  4 21:56:47 2018.

 ----------------------------------------------------------------------
 #N Geom=AllCheck Guess=TCheck SCRF=Check GenChk RM062X/6-311++G(2d,2p)
  Freq
 ----------------------------------------------------------------------

 Structure from the checkpoint file:  "D_1a_4e_D_PSI.inp_extract_4.chk"
 ---------------------------
 D_1a_4e_D_PSI.inp_extract_4
 ---------------------------
 Charge =  0 Multiplicity = 1

                         Standard orientation:
 ---------------------------------------------------------------------
 Center     Atomic      Atomic             Coordinates (Angstroms)
 Number     Number       Type             X           Y           Z
 ---------------------------------------------------------------------
      1          6           0       -3.600848    0.319124   -0.629120
      2          6           0       -1.129777   -0.015375    0.810796
      3          6           0        1.005868   -0.140325   -0.375451
      4          6           0       -3.200371   -1.073004   -0.143198
      5          8           0        3.266942   -0.962050   -0.691933
      6          6           0        3.801277    0.047176    0.155267
      7          6           0       -2.357898    1.166769   -0.843776
      8          6           0        1.506117    0.974487    0.534789
      9          6           0        1.957386   -1.328785   -0.305010
     10          6           0        2.945208    1.303208    0.128761
     11          8           0       -1.567871    1.244776    0.342909
     12          8           0       -0.304299   -0.651260   -0.127707
     13          6           0       -2.302739   -0.943645    1.086584
     14          1           0       -4.235758    0.802769    0.117289
     15          1           0       -4.166149    0.264654   -1.560010
     16          1           0        1.013264    0.239320   -1.403163
     17          1           0       -4.080985   -1.668128    0.096235
     18          1           0       -2.660637   -1.594282   -0.936022
     19          1           0        4.808910    0.244759   -0.203743
     20          1           0        3.866549   -0.340050    1.179509
     21          1           0       -1.752351    0.752493   -1.655026
     22          1           0       -2.612211    2.194191   -1.094522
     23          1           0        1.507547    0.633193    1.573512
     24          1           0        0.865334    1.850957    0.468207
     25          1           0        2.962412    1.724867   -0.878366
     26          1           0        3.369662    2.045590    0.804592
     27          1           0       -2.870558   -0.514917    1.914347
     28          1           0       -1.918916   -1.910714    1.408737
     29          1           0       -0.585337    0.203945    1.727582
     30          1           0        1.956946   -1.723711    0.719352
     31          1           0        1.628760   -2.114458   -0.982518
 ---------------------------------------------------------------------

 SCF Done:  E(RM062X) =  -617.499129869     A.U. after    1 cycles

 The electronic state is 1-A.
 Alpha  occ. eigenvalues --  -19.63196 -19.63168 -19.62732 -10.63449 -10.58895
 Alpha  occ. eigenvalues --  -10.58098 -10.58027 -10.57661 -10.53419 -10.53377
 Alpha  occ. eigenvalues --  -10.53010 -10.52927 -10.52801  -1.19844  -1.16702
 Alpha  occ. eigenvalues --   -1.13205  -0.91066  -0.89668  -0.87511  -0.84498
 Alpha  occ. eigenvalues --   -0.75234  -0.74001  -0.72536  -0.70840  -0.66344
 Alpha  occ. eigenvalues --   -0.63056  -0.60209  -0.58728  -0.56468  -0.56089
 Alpha  occ. eigenvalues --   -0.54100  -0.53444  -0.52300  -0.50892  -0.49535
 Alpha  occ. eigenvalues --   -0.48534  -0.46698  -0.46312  -0.45337  -0.45119
 Alpha  occ. eigenvalues --   -0.43725  -0.43204  -0.41090  -0.40237  -0.39132
 Alpha  occ. eigenvalues --   -0.38402  -0.37618  -0.36030  -0.34859  -0.33557
 Alpha  occ. eigenvalues --   -0.31946
 Alpha virt. eigenvalues --   -0.00067   0.00755   0.00786   0.01069   0.02146
 Alpha virt. eigenvalues --    0.02453   0.02648   0.03487   0.03596   0.04457
 Alpha virt. eigenvalues --    0.04583   0.04794   0.05671   0.05782   0.06859

 Mulliken charges:
               1
     1  C   -0.424840
     2  C   -0.015881
     3  C   -0.045914
     4  C   -0.274845
     5  O   -0.346050
     6  C   -0.189612
     7  C   -0.092043
     8  C   -0.138204
     9  C   -0.273421
    10  C   -0.495105
    11  O   -0.280748
    12  O   -0.314509
    13  C   -0.532782
    14  H    0.160751
    15  H    0.173401
    16  H    0.253018
    17  H    0.184100
    18  H    0.177223
    19  H    0.210679
    20  H    0.139727
    21  H    0.141925
    22  H    0.202501
    23  H    0.217634
    24  H    0.197666
    25  H    0.168407
    26  H    0.172515
    27  H    0.190357
    28  H    0.182798
    29  H    0.267946
    30  H    0.186420
    31  H    0.196887
 Sum of Mulliken charges =  -0.00000

 Dipole moment (field-independent basis, Debye):
    X=             -0.8799    Y=              0.7984    Z=              1.3145  Tot=              1.7719
 Quadrupole moment (field-independent basis, Debye-Ang):
   XX=            -77.0757   YY=            -82.8444   ZZ=            -78.6610
   XY=              6.8176   XZ=              6.6204   YZ=             -3.6144

  Exact polarizability: 175.270   3.000 157.264   1.041  -2.158 152.816
 Approx polarizability: 146.208   1.231 142.149  -0.272   0.180 143.783

 ******    1 imaginary frequencies (negative Signs) ******

                      1                      2                      3
                      A                      A                      A
 Frequencies --    -52.4739                56.7073                94.5673
 Red. masses --      3.7282                 3.9297                 3.6829
 Frc consts  --      0.0060                 0.0074                 0.0194
 IR Inten    --      0.3937                 1.8732                 3.7254

                      4                      5                      6
                      A                      A                      A
 Frequencies --    145.4077               206.1498               220.9834
 Red. masses --      3.0163                 3.3715                 2.7577
 Frc consts  --      0.0376                 0.0844                 0.0793
 IR Inten    --      0.2894                 1.2427                 9.5760

                      7                      8                      9
                      A                      A                      A
 Frequencies --    258.2022               260.5736               338.8567
 Red. masses --      2.7849                 2.2655                 2.7923
 Frc consts  --      0.1094                 0.0906                 0.1889
 IR Inten    --      1.6610                 3.9111                12.6742

                     10                     11                     12
                      A                      A                      A
 Frequencies --    364.2511               380.5368               436.7523
 Red. masses --      2.1534                 2.1725                 3.1757
 Frc consts  --      0.1683                 0.1854                 0.3569
 IR Inten    --      4.5104                16.3725                 2.8869

                     13                     14                     15
                      A                      A                      A
 Frequencies --    444.4210               461.0266               486.0215
 Red. masses --      3.0909                 3.4431                 2.6230
 Frc consts  --      0.3597                 0.4312                 0.3651
 IR Inten    --      7.7127                 3.2298                 2.3688

                     16                     17                     18
                      A                      A                      A
 Frequencies --    538.5068               578.7072               633.7645
 Red. masses --      1.9636                 2.4641                 3.8044
 Frc consts  --      0.3355                 0.4862                 0.9003
 IR Inten    --      6.0068                13.2313                 6.7140

                     19                     20                     21
                      A                      A                      A
 Frequencies --    716.7261               823.7427               835.5228
 Red. masses --      2.9696                 1.9794                 1.6244
 Frc consts  --      0.8988                 0.7913                 0.6681
 IR Inten    --      4.3178                 2.5975                 2.1958

                     22                     23                     24
                      A                      A                      A
 Frequencies --    840.6230               884.3220               889.0656
 Red. masses --      3.5337                 1.3919                 2.3748
 Frc consts  --      1.4712                 0.6413                 1.1060
 IR Inten    --     12.7460                13.6627                15.3031

                     25                     26                     27
                      A                      A                      A
 Frequencies --    894.6554               910.7770               927.7135
 Red. masses --      2.5269                 2.3392                 1.7496
 Frc consts  --      1.1916                 1.1433                 0.8872
 IR Inten    --     12.7432                22.6696                25.8805

                     28                     29                     30
                      A                      A                      A
 Frequencies --    949.9228               981.2355               995.3112
 Red. masses --      2.2513                 2.0368                 1.6096
 Frc consts  --      1.1969                 1.1554                 0.9395
 IR Inten    --     29.4892                43.9216                 9.1944

                     31                     32                     33
                      A                      A                      A
 Frequencies --   1018.1352              1043.3506              1057.6035
 Red. masses --      2.1176                 2.3073                 1.7260
 Frc consts  --      1.2933                 1.4798                 1.1374
 IR Inten    --     52.6267                63.4234                18.1165

                     34                     35                     36
                      A                      A                      A
 Frequencies --   1061.8767              1072.2085              1117.0803
 Red. masses --      1.5794                 2.1750                 4.3182
 Frc consts  --      1.0493                 1.4732                 3.1748
 IR Inten    --     72.4391                27.1004               265.4256

                     37                     38                     39
                      A                      A                      A
 Frequencies --   1144.9008              1154.6266              1165.4143
 Red. masses --      2.3065                 3.0087                 2.3441
 Frc consts  --      1.7813                 2.3633                 1.8758
 IR Inten    --     12.3214               137.7207                15.3089

                     40                     41                     42
                      A                      A                      A
 Frequencies --   1182.0004              1190.3926              1210.4017
 Red. masses --      3.6565                 2.3393                 1.4242
 Frc consts  --      3.0099                 1.9530                 1.2294
 IR Inten    --    244.8164                28.5974                24.3662

                     43                     44                     45
                      A                      A                      A
 Frequencies --   1215.1204              1233.5777              1253.3999
 Red. masses --      1.5770                 1.6379                 1.5213
 Frc consts  --      1.3719                 1.4685                 1.4082
 IR Inten    --     67.2726                40.2403                17.2495

                     46                     47                     48
                      A                      A                      A
 Frequencies --   1287.1562              1303.6676              1319.2177
 Red. masses --      1.2172                 1.1846                 1.1510
 Frc consts  --      1.1882                 1.1862                 1.1802
 IR Inten    --     17.1957                20.8851                 8.1609

                     49                     50                     51
                      A                      A                      A
 Frequencies --   1330.2961              1348.4238              1356.7704
 Red. masses --      1.2557                 1.3010                 1.2386
 Frc consts  --      1.3093                 1.3937                 1.3434
 IR Inten    --      8.9241                16.5054                 0.4012

                     52                     53                     54
                      A                      A                      A
 Frequencies --   1362.3604              1383.6915              1384.1485
 Red. masses --      1.3170                 1.4401                 1.4451
 Frc consts  --      1.4402                 1.6245                 1.6312
 IR Inten    --      5.3763                 1.0695                 3.6768

                     55                     56                     57
                      A                      A                      A
 Frequencies --   1390.3952              1395.9148              1404.3033
 Red. masses --      1.6769                 1.2442                 1.4031
 Frc consts  --      1.9100                 1.4285                 1.6302
 IR Inten    --      6.6760                15.7735                 6.0884

                     58                     59                     60
                      A                      A                      A
 Frequencies --   1416.8146              1418.2918              1428.9620
 Red. masses --      1.3564                 1.4481                 1.4347
 Frc consts  --      1.6042                 1.7163                 1.7260
 IR Inten    --     13.2549                15.4144                 4.8440

                     61                     62                     63
                      A                      A                      A
 Frequencies --   1432.6472              1475.8497              1481.7483
 Red. masses --      1.3795                 1.1042                 1.0857
 Frc consts  --      1.6682                 1.4171                 1.4045
 IR Inten    --     21.1120                 4.3412                 7.6656

                     64                     65                     66
                      A                      A                      A
 Frequencies --   1483.3472              1495.3188              1498.9534
 Red. masses --      1.0955                 1.1075                 1.0942
 Frc consts  --      1.4202                 1.4590                 1.4485
 IR Inten    --      9.5408                14.3247                 6.1046

                     67                     68                     69
                      A                      A                      A
 Frequencies --   1502.0380              1510.0347              1516.1743
 Red. masses --      1.0965                 1.0933                 1.1005
 Frc consts  --      1.4575                 1.4688                 1.4906
 IR Inten    --      2.9159                 3.7701                 7.6269

                     70                     71                     72
                      A                      A                      A
 Frequencies --   3013.8935              3020.8395              3034.1431
 Red. masses --      1.0700                 1.0706                 1.0819
 Frc consts  --      5.7265                 5.7563                 5.8682
 IR Inten    --     29.0751                84.8594                79.9766

                     73                     74                     75
                      A                      A                      A
 Frequencies --   3052.8266              3061.3075              3062.6334
 Red. masses --      1.0687                 1.0692                 1.0627
 Frc consts  --      5.8683                 5.9040                 5.8727
 IR Inten    --     41.4451                32.1512                39.1714

                     76                     77                     78
                      A                      A                      A
 Frequencies --   3072.1855              3072.6320              3078.3342
 Red. masses --      1.0622                 1.0629                 1.0623
 Frc consts  --      5.9069                 5.9122                 5.9310
 IR Inten    --     64.7230                20.1042                20.1206

                     79                     80                     81
                      A                      A                      A
 Frequencies --   3112.3449              3118.4014              3120.0132
 Red. masses --      1.0976                 1.0966                 1.0944
 Frc consts  --      6.2642                 6.2827                 6.2766
 IR Inten    --     57.5446                20.0497                47.8637

                     82                     83                     84
                      A                      A                      A
 Frequencies --   3121.6783              3130.5427              3132.6230
 Red. masses --      1.0978                 1.1032                 1.0945
 Frc consts  --      6.3032                 6.3698                 6.3280
 IR Inten    --     86.7175                40.3619                47.2831

                     85                     86                     87
                      A                      A                      A
 Frequencies --   3133.1044              3134.9937              3144.0835
 Red. masses --      1.0986                 1.0949                 1.0970
 Frc consts  --      6.3540                 6.3403                 6.3891
 IR Inten    --     46.3785                35.9118                22.0194

 - Thermochemistry -
 -------------------
 Temperature   298.150 Kelvin.  Pressure   1.00000 Atm.
 Atom     1 has atomic number  6 and mass  12.00000

 Molecular mass:   186.12559 amu.
 Principal axes and moments of inertia in atomic units:
                           1         2         3
     Eigenvalues --   903.246324380.925074734.32693
           X            0.99988   0.01292   0.00832
           Y           -0.01259   0.99920  -0.03805
           Z           -0.00880   0.03794   0.99924
 This molecule is an asymmetric top.
 Rotational symmetry number  1.
 Warning -- assumption of classical behavior for rotation
           may cause significant error
 Rotational temperatures (Kelvin)      0.09589     0.01977     0.01829
 Rotational constants (GHZ):           1.99806     0.41195     0.38120
    1 imaginary frequencies ignored.
 Zero-point vibrational energy     737008.8 (Joules/Mol)
                                  176.14933 (Kcal/Mol)
 Warning -- explicit consideration of  16 degrees of freedom as
           vibrations may cause significant error
 Vibrational temperatures:     81.59   136.06   209.21   296.60   317.95
          (Kelvin)            371.50   374.91   487.54   524.08   547.51
                              628.39   639.42   663.31   699.28   774.79
                              832.63   911.85  1031.21  1185.18  1202.13
                             1209.47  1272.34  1279.17  1287.21  1310.41
                             1334.77  1366.73  1411.78  1432.03  1464.87
                             1501.15  1521.66  1527.80  1542.67  1607.23
                             1647.26  1661.25  1676.77  1700.63  1712.71
                             1741.50  1748.29  1774.84  1803.36  1851.93
                             1875.69  1898.06  1914.00  1940.08  1952.09
                             1960.13  1990.82  1991.48  2000.47  2008.41
                             2020.48  2038.48  2040.61  2055.96  2061.26
                             2123.42  2131.91  2134.21  2151.43  2156.66
                             2161.10  2172.60  2181.44  4336.32  4346.31
                             4365.46  4392.34  4404.54  4406.45  4420.19
                             4420.83  4429.04  4477.97  4486.68  4489.00
                             4491.40  4504.15  4507.15  4507.84  4510.56
                             4523.63

 Zero-point correction=                           0.280712 (Hartree/Particle)
 Thermal correction to Energy=                    0.291592
 Thermal correction to Enthalpy=                  0.292537
 Thermal correction to Gibbs Free Energy=         0.244024
 Sum of electronic and zero-point Energies=           -617.218418
 Sum of electronic and thermal Energies=              -617.207538
 Sum of electronic and thermal Enthalpies=            -617.206593
 Sum of electronic and thermal Free Energies=         -617.255106

                     E (Thermal)             CV                S
                      KCal/Mol        Cal/Mol-Kelvin    Cal/Mol-Kelvin
 Total                  182.977             44.738            102.104
 Electronic               0.000              0.000              0.000
 Translational            0.889              2.981             41.570
 Rotational               0.889              2.981             31.305
 Vibrational            181.200             38.776             29.229
 Vibration     1          0.596              1.975              4.569
 Vibration     2          0.603              1.953              3.563
 Vibration     3          0.617              1.908              2.731
 Vibration     4          0.641              1.831              2.078
 Vibration     5          0.648              1.809              1.951
 Vibration     6          0.667              1.749              1.674
 Vibration     7          0.669              1.745              1.658
 Vibration     8          0.719              1.598              1.218
 Vibration     9          0.738              1.546              1.104
 Vibration    10          0.750              1.512              1.037
 Vibration    11          0.797              1.390              0.837
 Vibration    12          0.804              1.373              0.813
 Vibration    13          0.819              1.336              0.763
 Vibration    14          0.842              1.281              0.694
 Vibration    15          0.894              1.165              0.569
 Vibration    16          0.935              1.077              0.488

 Optimization completed.
    -- Stationary point found.
 Normal termination of Gaussian 16 at Sun Nov  4 22:56:37 2018.
