 Gaussian 16, Revision A.03,
 Gaussian 16:  ES64L-G16RevA.03 25-Dec-2016

 ----------------------------------------------------------------------
 #M062X/6-311++G(2d,2p) opt=ModRedundant freq=noraman SCRF=(Solvent=Wat
 er)
 ----------------------------------------------------------------------

 ----------------------------
 D_1a_4e_D_PSI.inp_extract_17
 ----------------------------
 Symbolic Z-matrix:
 Charge =  0 Multiplicity = 1

 SCF Done:  E(RM062X) =  -617.499135915     A.U. after   12 cycles
 SCF Done:  E(RM062X) =  -617.500704965     A.U. after   12 cycles
 SCF Done:  E(RM062X) =  -617.501124926     A.U. after   11 cycles
 SCF Done:  E(RM062X) =  -617.501333917     A.U. after   10 cycles
 SCF Done:  E(RM062X) =  -617.501399760     A.U. after   10 cycles
 SCF Done:  E(RM062X) =  -617.501403539     A.U. after    8 cycles
 SCF Done:  E(RM062X) =  -617.501403937     A.U. after    7 cycles
 Optimization completed.
    -- Stationary point found.
 Normal termination of Gaussian 16 at Sun Nov  4 22:01:41 2018.

 ----------------------------------------------------------------------
 #N Geom=AllCheck Guess=TCheck SCRF=Check GenChk RM062X/6-311++G(2d,2p)
  Freq
 ----------------------------------------------------------------------

 Structure from the checkpoint file:  "D_1a_4e_D_PSI.inp_extract_17.chk"
 ----------------------------
 D_1a_4e_D_PSI.inp_extract_17
 ----------------------------
 Charge =  0 Multiplicity = 1

                         Standard orientation:
 ---------------------------------------------------------------------
 Center     Atomic      Atomic             Coordinates (Angstroms)
 Number     Number       Type             X           Y           Z
 ---------------------------------------------------------------------
      1          6           0       -3.231402   -0.499331    1.025977
      2          6           0       -1.254214    0.051321   -0.992909
      3          6           0        1.052860    0.597403   -0.482237
      4          6           0       -3.175911    0.888456    0.389182
      5          8           0        2.813798   -1.030796   -0.698448
      6          6           0        3.521323   -0.539400    0.431965
      7          6           0       -1.858891   -1.148069    0.965237
      8          6           0        1.763924    1.205503    0.717096
      9          6           0        1.411066   -0.892358   -0.547598
     10          6           0        3.266363    0.945149    0.630624
     11          8           0       -1.372335   -1.211396   -0.375964
     12          8           0       -0.335216    0.878170   -0.326369
     13          6           0       -2.589520    0.780093   -1.018216
     14          1           0       -3.944657   -1.125992    0.485111
     15          1           0       -3.559202   -0.444091    2.064469
     16          1           0        1.406159    1.063367   -1.409557
     17          1           0       -4.168463    1.335714    0.347986
     18          1           0       -2.548658    1.543224    0.997144
     19          1           0        4.573759   -0.744014    0.247558
     20          1           0        3.208845   -1.098224    1.322582
     21          1           0       -1.147723   -0.590558    1.581896
     22          1           0       -1.884706   -2.177463    1.315640
     23          1           0        1.352551    0.742791    1.618546
     24          1           0        1.552789    2.273841    0.768292
     25          1           0        3.691024    1.494221   -0.212244
     26          1           0        3.769510    1.287465    1.534985
     27          1           0       -3.264748    0.206539   -1.655706
     28          1           0       -2.449003    1.759796   -1.472708
     29          1           0       -0.904614   -0.162200   -2.005963
     30          1           0        1.076423   -1.397151    0.365218
     31          1           0        0.957153   -1.387694   -1.401721
 ---------------------------------------------------------------------

 SCF Done:  E(RM062X) =  -617.501403937     A.U. after    1 cycles

 The electronic state is 1-A.
 Alpha  occ. eigenvalues --  -19.63301 -19.63084 -19.62898 -10.63596 -10.58918
 Alpha  occ. eigenvalues --  -10.58008 -10.57990 -10.57773 -10.53258 -10.53219
 Alpha  occ. eigenvalues --  -10.53059 -10.52987 -10.52866  -1.20057  -1.16558
 Alpha  occ. eigenvalues --   -1.13462  -0.91109  -0.89759  -0.87038  -0.84640
 Alpha  occ. eigenvalues --   -0.74928  -0.74010  -0.72660  -0.70813  -0.66266
 Alpha  occ. eigenvalues --   -0.63467  -0.60272  -0.58630  -0.57110  -0.56114
 Alpha  occ. eigenvalues --   -0.53433  -0.53362  -0.52354  -0.50988  -0.49596
 Alpha  occ. eigenvalues --   -0.48617  -0.46904  -0.45705  -0.45224  -0.44963
 Alpha  occ. eigenvalues --   -0.43859  -0.42975  -0.40834  -0.40112  -0.39825
 Alpha  occ. eigenvalues --   -0.38420  -0.37819  -0.36390  -0.34672  -0.33324
 Alpha  occ. eigenvalues --   -0.32154
 Alpha virt. eigenvalues --   -0.00049   0.00767   0.00806   0.01043   0.02186
 Alpha virt. eigenvalues --    0.02518   0.02687   0.03383   0.03396   0.04450
 Alpha virt. eigenvalues --    0.04792   0.04825   0.05742   0.05920   0.07162

 Mulliken charges:
               1
     1  C   -0.423081
     2  C   -0.039080
     3  C   -0.321328
     4  C   -0.287689
     5  O   -0.363968
     6  C   -0.171891
     7  C   -0.087574
     8  C   -0.054338
     9  C   -0.248476
    10  C   -0.358697
    11  O   -0.255531
    12  O   -0.280880
    13  C   -0.529686
    14  H    0.162696
    15  H    0.171068
    16  H    0.245835
    17  H    0.185558
    18  H    0.173449
    19  H    0.205535
    20  H    0.132380
    21  H    0.142244
    22  H    0.207477
    23  H    0.185955
    24  H    0.173180
    25  H    0.168281
    26  H    0.177642
    27  H    0.199166
    28  H    0.185282
    29  H    0.243054
    30  H    0.225516
    31  H    0.237900
 Sum of Mulliken charges =  -0.00000

 Dipole moment (field-independent basis, Debye):
    X=             -0.8445    Y=              1.3848    Z=              1.7908  Tot=              2.4161
 Quadrupole moment (field-independent basis, Debye-Ang):
   XX=            -75.0087   YY=            -84.3676   ZZ=            -77.5006
   XY=              3.5651   XZ=              4.5329   YZ=             -3.7745

  Exact polarizability: 175.466   1.161 154.771   0.854  -1.824 155.760
 Approx polarizability: 147.099   1.789 141.282  -0.263  -0.102 144.540

                      1                      2                      3
                      A                      A                      A
 Frequencies --     41.9308                61.1941               111.0020
 Red. masses --      3.3907                 3.9506                 3.5869
 Frc consts  --      0.0035                 0.0087                 0.0260
 IR Inten    --      1.5296                 0.2264                 1.9210

                      4                      5                      6
                      A                      A                      A
 Frequencies --    153.8296               191.7342               229.5409
 Red. masses --      3.2683                 3.2737                 2.9502
 Frc consts  --      0.0456                 0.0709                 0.0916
 IR Inten    --      1.7911                 2.0269                 5.8660

                      7                      8                      9
                      A                      A                      A
 Frequencies --    260.6035               288.5011               343.9487
 Red. masses --      1.9591                 2.8160                 3.1593
 Frc consts  --      0.0784                 0.1381                 0.2202
 IR Inten    --      3.7547                 0.8752                20.9417

                     10                     11                     12
                      A                      A                      A
 Frequencies --    359.2632               385.3071               440.2768
 Red. masses --      1.9929                 2.6824                 3.5835
 Frc consts  --      0.1515                 0.2346                 0.4093
 IR Inten    --      1.4515                19.1829                 7.0889

                     13                     14                     15
                      A                      A                      A
 Frequencies --    445.2120               463.7284               487.0060
 Red. masses --      3.2213                 3.4282                 2.1829
 Frc consts  --      0.3762                 0.4344                 0.3050
 IR Inten    --      2.9377                 0.6482                 1.0548

                     16                     17                     18
                      A                      A                      A
 Frequencies --    536.7659               572.2350               630.7969
 Red. masses --      2.0797                 2.0702                 4.4000
 Frc consts  --      0.3530                 0.3994                 1.0315
 IR Inten    --      1.9275                11.8696                 8.7673

                     19                     20                     21
                      A                      A                      A
 Frequencies --    710.7174               830.6113               834.9065
 Red. masses --      2.7436                 1.8274                 1.8071
 Frc consts  --      0.8165                 0.7428                 0.7422
 IR Inten    --      0.8604                 0.8905                 0.8031

                     22                     23                     24
                      A                      A                      A
 Frequencies --    841.5456               877.4952               892.2666
 Red. masses --      3.2622                 1.3898                 2.2980
 Frc consts  --      1.3612                 0.6305                 1.0779
 IR Inten    --      8.7684                 8.7891                15.2610

                     25                     26                     27
                      A                      A                      A
 Frequencies --    900.1759               910.5488               928.7809
 Red. masses --      2.5482                 2.4659                 1.7304
 Frc consts  --      1.2166                 1.2046                 0.8795
 IR Inten    --     32.1415                 5.0691                20.9984

                     28                     29                     30
                      A                      A                      A
 Frequencies --    943.6132               989.4964               994.9529
 Red. masses --      2.0941                 1.4806                 2.3124
 Frc consts  --      1.0986                 0.8541                 1.3487
 IR Inten    --     29.6170                24.3221                34.7773

                     31                     32                     33
                      A                      A                      A
 Frequencies --   1015.3456              1041.6385              1054.3771
 Red. masses --      2.1306                 2.2663                 1.7017
 Frc consts  --      1.2941                 1.4488                 1.1146
 IR Inten    --     59.7902                60.1892                49.4761

                     34                     35                     36
                      A                      A                      A
 Frequencies --   1064.5318              1073.3494              1118.8217
 Red. masses --      1.5285                 2.2527                 4.5052
 Frc consts  --      1.0206                 1.5291                 3.3226
 IR Inten    --     55.2726                20.4615               281.3575

                     37                     38                     39
                      A                      A                      A
 Frequencies --   1137.4669              1149.0692              1170.1800
 Red. masses --      2.5447                 2.9657                 2.4806
 Frc consts  --      1.9399                 2.3071                 2.0013
 IR Inten    --     22.5315               162.9034                45.4576

                     40                     41                     42
                      A                      A                      A
 Frequencies --   1176.6021              1186.7987              1210.0617
 Red. masses --      3.9321                 2.3964                 1.4037
 Frc consts  --      3.2072                 1.9887                 1.2110
 IR Inten    --    174.1828                38.0915                17.9161

                     43                     44                     45
                      A                      A                      A
 Frequencies --   1218.1065              1234.1777              1252.2978
 Red. masses --      1.5777                 1.6417                 1.4727
 Frc consts  --      1.3793                 1.4733                 1.3607
 IR Inten    --     18.7967                52.4210                13.4078

                     46                     47                     48
                      A                      A                      A
 Frequencies --   1288.0468              1304.4452              1320.3671
 Red. masses --      1.2153                 1.1575                 1.1564
 Frc consts  --      1.1880                 1.1604                 1.1878
 IR Inten    --     14.4893                 9.4757                 8.1300

                     49                     50                     51
                      A                      A                      A
 Frequencies --   1331.0344              1336.4662              1355.2244
 Red. masses --      1.3002                 1.1738                 1.2731
 Frc consts  --      1.3572                 1.2352                 1.3776
 IR Inten    --     13.2879                 3.4656                10.6476

                     52                     53                     54
                      A                      A                      A
 Frequencies --   1363.2887              1383.1109              1384.8769
 Red. masses --      1.3127                 1.4499                 1.4842
 Frc consts  --      1.4374                 1.6341                 1.6772
 IR Inten    --      2.1786                11.2663                 7.6531

                     55                     56                     57
                      A                      A                      A
 Frequencies --   1389.1882              1396.0328              1401.7119
 Red. masses --      1.5880                 1.3107                 1.4430
 Frc consts  --      1.8056                 1.5051                 1.6704
 IR Inten    --      6.5615                24.8963                 4.6680

                     58                     59                     60
                      A                      A                      A
 Frequencies --   1408.8332              1420.3836              1428.3984
 Red. masses --      1.3706                 1.5205                 1.4112
 Frc consts  --      1.6027                 1.8073                 1.6964
 IR Inten    --      9.2339                17.4327                17.3717

                     61                     62                     63
                      A                      A                      A
 Frequencies --   1435.9883              1475.3964              1481.4380
 Red. masses --      1.3478                 1.1048                 1.0915
 Frc consts  --      1.6375                 1.4169                 1.4114
 IR Inten    --      6.0797                 4.8332                 6.5711

                     64                     65                     66
                      A                      A                      A
 Frequencies --   1482.2171              1491.1791              1495.6779
 Red. masses --      1.0867                 1.0962                 1.1069
 Frc consts  --      1.4066                 1.4362                 1.4589
 IR Inten    --      7.7681                 9.2419                14.3689

                     67                     68                     69
                      A                      A                      A
 Frequencies --   1499.2202              1508.2179              1511.7424
 Red. masses --      1.1009                 1.0940                 1.1012
 Frc consts  --      1.4579                 1.4662                 1.4827
 IR Inten    --      1.9141                 3.4594                 8.4188

                     70                     71                     72
                      A                      A                      A
 Frequencies --   3020.5722              3024.5758              3041.1463
 Red. masses --      1.0712                 1.0806                 1.0700
 Frc consts  --      5.7584                 5.8246                 5.8304
 IR Inten    --     78.7547                16.0738                84.9053

                     73                     74                     75
                      A                      A                      A
 Frequencies --   3052.4140              3059.0606              3063.5475
 Red. masses --      1.0691                 1.0647                 1.0629
 Frc consts  --      5.8691                 5.8703                 5.8777
 IR Inten    --     47.0159                56.0526                42.2994

                     76                     77                     78
                      A                      A                      A
 Frequencies --   3067.4077              3071.3820              3072.9633
 Red. masses --      1.0808                 1.0619                 1.0632
 Frc consts  --      5.9918                 5.9023                 5.9156
 IR Inten    --     28.7635                36.4916                25.4990

                     79                     80                     81
                      A                      A                      A
 Frequencies --   3081.8770              3113.5410              3113.7457
 Red. masses --      1.0671                 1.0982                 1.0986
 Frc consts  --      5.9716                 6.2723                 6.2759
 IR Inten    --     63.2601                30.0544                50.5463

                     82                     83                     84
                      A                      A                      A
 Frequencies --   3119.5658              3120.8425              3131.4213
 Red. masses --      1.1025                 1.1027                 1.1033
 Frc consts  --      6.3212                 6.3276                 6.3742
 IR Inten    --     65.7484                51.8967                40.6511

                     85                     86                     87
                      A                      A                      A
 Frequencies --   3133.2296              3135.8767              3150.7566
 Red. masses --      1.0950                 1.0978                 1.0963
 Frc consts  --      6.3334                 6.3607                 6.4124
 IR Inten    --     49.2118                42.7268                35.3245

 - Thermochemistry -
 -------------------
 Temperature   298.150 Kelvin.  Pressure   1.00000 Atm.
 Atom     1 has atomic number  6 and mass  12.00000

 Molecular mass:   186.12559 amu.
 Principal axes and moments of inertia in atomic units:
                           1         2         3
     Eigenvalues --   985.627264111.899754301.28544
           X            0.99998   0.00372   0.00414
           Y           -0.00349   0.99854  -0.05395
           Z           -0.00434   0.05394   0.99853
 This molecule is an asymmetric top.
 Rotational symmetry number  1.
 Warning -- assumption of classical behavior for rotation
           may cause significant error
 Rotational temperatures (Kelvin)      0.08788     0.02106     0.02014
 Rotational constants (GHZ):           1.83106     0.43891     0.41958
 Zero-point vibrational energy     737062.5 (Joules/Mol)
                                  176.16216 (Kcal/Mol)
 Warning -- explicit consideration of  17 degrees of freedom as
           vibrations may cause significant error
 Vibrational temperatures:     60.33    88.04   159.71   221.33   275.86
          (Kelvin)            330.26   374.95   415.09   494.87   516.90
                              554.37   633.46   640.56   667.20   700.69
                              772.29   823.32   907.58  1022.56  1195.06
                             1201.24  1210.80  1262.52  1283.77  1295.15
                             1310.08  1336.31  1357.65  1423.66  1431.52
                             1460.86  1498.69  1517.01  1531.62  1544.31
                             1609.73  1636.56  1653.25  1683.63  1692.87
                             1707.54  1741.01  1752.58  1775.71  1801.78
                             1853.21  1876.81  1899.71  1915.06  1922.88
                             1949.87  1961.47  1989.99  1992.53  1998.73
                             2008.58  2016.75  2027.00  2043.62  2055.15
                             2066.07  2122.77  2131.46  2132.58  2145.47
                             2151.95  2157.04  2169.99  2175.06  4345.93
                             4351.69  4375.53  4391.74  4401.31  4407.76
                             4413.32  4419.03  4421.31  4434.13  4479.69
                             4479.99  4488.36  4490.20  4505.42  4508.02
                             4511.83  4533.24

 Zero-point correction=                           0.280732 (Hartree/Particle)
 Thermal correction to Energy=                    0.292376
 Thermal correction to Enthalpy=                  0.293320
 Thermal correction to Gibbs Free Energy=         0.242726
 Sum of electronic and zero-point Energies=           -617.220672
 Sum of electronic and thermal Energies=              -617.209028
 Sum of electronic and thermal Enthalpies=            -617.208084
 Sum of electronic and thermal Free Energies=         -617.258678

                     E (Thermal)             CV                S
                      KCal/Mol        Cal/Mol-Kelvin    Cal/Mol-Kelvin
 Total                  183.469             46.664            106.484
 Electronic               0.000              0.000              0.000
 Translational            0.889              2.981             41.570
 Rotational               0.889              2.981             31.234
 Vibrational            181.691             40.702             33.680
 Vibration     1          0.595              1.980              5.166
 Vibration     2          0.597              1.973              4.418
 Vibration     3          0.607              1.940              3.251
 Vibration     4          0.619              1.898              2.624
 Vibration     5          0.634              1.851              2.211
 Vibration     6          0.652              1.796              1.883
 Vibration     7          0.669              1.745              1.658
 Vibration     8          0.685              1.695              1.483
 Vibration     9          0.723              1.588              1.194
 Vibration    10          0.734              1.556              1.125
 Vibration    11          0.754              1.502              1.018
 Vibration    12          0.800              1.382              0.826
 Vibration    13          0.805              1.371              0.810
 Vibration    14          0.821              1.331              0.755
 Vibration    15          0.843              1.279              0.691
 Vibration    16          0.892              1.169              0.572
 Vibration    17          0.928              1.091              0.500

 Optimization completed.
    -- Stationary point found.
 Normal termination of Gaussian 16 at Sun Nov  4 22:54:15 2018.
