 Gaussian 16, Revision A.03,
 Gaussian 16:  ES64L-G16RevA.03 25-Dec-2016

 ----------------------------------------------------------------------
 #M062X/6-311++G(2d,2p) opt=ModRedundant freq=noraman SCRF=(Solvent=Wat
 er)
 ----------------------------------------------------------------------

 ---------------------------
 D_1a_4e_D_PSI.inp_extract_7
 ---------------------------
 Symbolic Z-matrix:
 Charge =  0 Multiplicity = 1

 SCF Done:  E(RM062X) =  -617.502587642     A.U. after   12 cycles
 SCF Done:  E(RM062X) =  -617.504420764     A.U. after   11 cycles
 SCF Done:  E(RM062X) =  -617.504550877     A.U. after   10 cycles
 SCF Done:  E(RM062X) =  -617.504594127     A.U. after    9 cycles
 SCF Done:  E(RM062X) =  -617.504596705     A.U. after    8 cycles
 SCF Done:  E(RM062X) =  -617.504597101     A.U. after    7 cycles
 SCF Done:  E(RM062X) =  -617.504597178     A.U. after    7 cycles
 Optimization completed.
    -- Stationary point found.
 Normal termination of Gaussian 16 at Sun Nov  4 21:59:13 2018.

 ----------------------------------------------------------------------
 #N Geom=AllCheck Guess=TCheck SCRF=Check GenChk RM062X/6-311++G(2d,2p)
  Freq
 ----------------------------------------------------------------------

 Structure from the checkpoint file:  "D_1a_4e_D_PSI.inp_extract_7.chk"
 ---------------------------
 D_1a_4e_D_PSI.inp_extract_7
 ---------------------------
 Charge =  0 Multiplicity = 1

                         Standard orientation:
 ---------------------------------------------------------------------
 Center     Atomic      Atomic             Coordinates (Angstroms)
 Number     Number       Type             X           Y           Z
 ---------------------------------------------------------------------
      1          6           0       -3.451044    0.191370    0.895450
      2          6           0       -1.213060   -0.567808   -0.742088
      3          6           0        0.926876    0.122616    0.085734
      4          6           0       -3.196182    0.940763   -0.411219
      5          8           0        3.046000    1.168212    0.637839
      6          6           0        3.784556    0.121907    0.019784
      7          6           0       -2.141679   -0.359719    1.433367
      8          6           0        1.648727   -1.067334   -0.534011
      9          6           0        1.800047    1.367351    0.001318
     10          6           0        3.035567   -1.197494    0.099889
     11          8           0       -1.501060   -1.209107    0.479146
     12          8           0       -0.285866    0.476365   -0.567056
     13          6           0       -2.455119    0.026381   -1.385223
     14          1           0       -4.140652   -0.637769    0.719566
     15          1           0       -3.901142    0.844379    1.643673
     16          1           0        0.725810   -0.093785    1.140335
     17          1           0       -4.132542    1.278888   -0.853632
     18          1           0       -2.591971    1.827314   -0.209521
     19          1           0        4.737726    0.070557    0.541463
     20          1           0        3.974729    0.385865   -1.027739
     21          1           0       -1.469273    0.461717    1.698694
     22          1           0       -2.295904   -0.976616    2.315702
     23          1           0        1.744108   -0.897184   -1.610848
     24          1           0        1.081873   -1.986033   -0.387741
     25          1           0        2.936933   -1.483175    1.149351
     26          1           0        3.611428   -1.976564   -0.399592
     27          1           0       -3.100621   -0.803695   -1.677804
     28          1           0       -2.161334    0.555909   -2.290795
     29          1           0       -0.786173   -1.349462   -1.371382
     30          1           0        1.950478    1.623783   -1.054913
     31          1           0        1.311807    2.203913    0.497745
 ---------------------------------------------------------------------

 SCF Done:  E(RM062X) =  -617.504597178     A.U. after    1 cycles

 The electronic state is 1-A.
 Alpha  occ. eigenvalues --  -19.63377 -19.63182 -19.63140 -10.63477 -10.58712
 Alpha  occ. eigenvalues --  -10.58113 -10.58077 -10.57892 -10.53379 -10.53327
 Alpha  occ. eigenvalues --  -10.53099 -10.53001 -10.52908  -1.20278  -1.16748
 Alpha  occ. eigenvalues --   -1.13449  -0.91072  -0.89710  -0.87641  -0.84459
 Alpha  occ. eigenvalues --   -0.75302  -0.74046  -0.72618  -0.70771  -0.65793
 Alpha  occ. eigenvalues --   -0.63943  -0.60026  -0.58768  -0.57389  -0.56063
 Alpha  occ. eigenvalues --   -0.53994  -0.53293  -0.51811  -0.51091  -0.49826
 Alpha  occ. eigenvalues --   -0.48739  -0.47238  -0.46111  -0.45611  -0.45266
 Alpha  occ. eigenvalues --   -0.43813  -0.42316  -0.41138  -0.40553  -0.39326
 Alpha  occ. eigenvalues --   -0.38480  -0.37864  -0.36431  -0.34665  -0.33417
 Alpha  occ. eigenvalues --   -0.32584
 Alpha virt. eigenvalues --   -0.00083   0.00778   0.00866   0.00993   0.02173
 Alpha virt. eigenvalues --    0.02464   0.02671   0.03409   0.03586   0.04462
 Alpha virt. eigenvalues --    0.04633   0.04793   0.05636   0.05718   0.06966

 Mulliken charges:
               1
     1  C   -0.422341
     2  C   -0.016466
     3  C   -0.161543
     4  C   -0.279923
     5  O   -0.338637
     6  C   -0.197809
     7  C   -0.099293
     8  C   -0.191232
     9  C   -0.272206
    10  C   -0.392598
    11  O   -0.267216
    12  O   -0.278543
    13  C   -0.489817
    14  H    0.165674
    15  H    0.173356
    16  H    0.240412
    17  H    0.182096
    18  H    0.172018
    19  H    0.209939
    20  H    0.142186
    21  H    0.129118
    22  H    0.204627
    23  H    0.230709
    24  H    0.193279
    25  H    0.168410
    26  H    0.175120
    27  H    0.195361
    28  H    0.184373
    29  H    0.248081
    30  H    0.189363
    31  H    0.203499
 Sum of Mulliken charges =  -0.00000

 Dipole moment (field-independent basis, Debye):
    X=             -0.8970    Y=             -0.9940    Z=             -1.1025  Tot=              1.7344
 Quadrupole moment (field-independent basis, Debye-Ang):
   XX=            -74.1940   YY=            -84.0640   ZZ=            -78.3552
   XY=             -7.6719   XZ=             -4.6573   YZ=              0.6543

  Exact polarizability: 174.762  -3.554 153.692   0.113  -0.036 156.391
 Approx polarizability: 145.834  -1.210 142.038   0.189   0.387 144.172

                      1                      2                      3
                      A                      A                      A
 Frequencies --     39.2048                64.0294               102.5586
 Red. masses --      3.4388                 4.0038                 3.4951
 Frc consts  --      0.0031                 0.0097                 0.0217
 IR Inten    --      1.7933                 0.6867                 1.1891

                      4                      5                      6
                      A                      A                      A
 Frequencies --    152.5510               184.0512               234.8105
 Red. masses --      3.2217                 3.0449                 3.0205
 Frc consts  --      0.0442                 0.0608                 0.0981
 IR Inten    --      0.2674                 3.6262                 7.5129

                      7                      8                      9
                      A                      A                      A
 Frequencies --    249.5699               278.2868               349.2143
 Red. masses --      1.9547                 2.8507                 2.4695
 Frc consts  --      0.0717                 0.1301                 0.1774
 IR Inten    --      5.1420                 2.7045                 3.6645

                     10                     11                     12
                      A                      A                      A
 Frequencies --    369.9283               383.4387               434.6033
 Red. masses --      2.4348                 2.2983                 3.3373
 Frc consts  --      0.1963                 0.1991                 0.3714
 IR Inten    --      7.1281                26.5557                 4.4633

                     13                     14                     15
                      A                      A                      A
 Frequencies --    450.4550               463.8054               484.0737
 Red. masses --      3.4392                 3.1356                 2.5380
 Frc consts  --      0.4112                 0.3974                 0.3504
 IR Inten    --      4.5007                 3.1305                 3.9863

                     16                     17                     18
                      A                      A                      A
 Frequencies --    534.1390               576.8714               633.8089
 Red. masses --      2.1614                 2.3404                 3.1000
 Frc consts  --      0.3633                 0.4589                 0.7337
 IR Inten    --      4.0092                11.9552                 4.3404

                     19                     20                     21
                      A                      A                      A
 Frequencies --    725.2464               825.6521               832.7752
 Red. masses --      3.1208                 2.0636                 1.6176
 Frc consts  --      0.9671                 0.8288                 0.6610
 IR Inten    --      5.6673                 1.7415                 1.8941

                     22                     23                     24
                      A                      A                      A
 Frequencies --    839.7934               880.3287               891.7161
 Red. masses --      3.3204                 1.4151                 2.3789
 Frc consts  --      1.3797                 0.6461                 1.1145
 IR Inten    --      7.0366                15.1954                 7.1866

                     25                     26                     27
                      A                      A                      A
 Frequencies --    897.7577               913.9969               929.5110
 Red. masses --      2.4572                 2.4156                 1.6352
 Frc consts  --      1.1668                 1.1889                 0.8324
 IR Inten    --     19.9107                18.4869                24.4156

                     28                     29                     30
                      A                      A                      A
 Frequencies --    944.7370               981.5038              1000.2988
 Red. masses --      2.1996                 2.3203                 1.4965
 Frc consts  --      1.1567                 1.3170                 0.8823
 IR Inten    --     40.6101                46.0214                 6.9523

                     31                     32                     33
                      A                      A                      A
 Frequencies --   1027.6541              1043.9162              1061.3098
 Red. masses --      2.2218                 2.3815                 1.6424
 Frc consts  --      1.3824                 1.5291                 1.0900
 IR Inten    --     30.0363                92.9218                39.5560

                     34                     35                     36
                      A                      A                      A
 Frequencies --   1064.6646              1072.9711              1116.6889
 Red. masses --      1.6090                 2.2208                 4.4574
 Frc consts  --      1.0746                 1.5064                 3.2749
 IR Inten    --     36.8249                26.4595               219.6662

                     37                     38                     39
                      A                      A                      A
 Frequencies --   1146.6733              1156.5710              1177.7278
 Red. masses --      2.2702                 3.0095                 2.3763
 Frc consts  --      1.7587                 2.3719                 1.9420
 IR Inten    --     13.0052               138.5712                38.1511

                     40                     41                     42
                      A                      A                      A
 Frequencies --   1181.9193              1187.0711              1211.9523
 Red. masses --      3.4692                 2.5115                 1.5283
 Frc consts  --      2.8553                 2.0852                 1.3226
 IR Inten    --    176.0007                46.2432                65.1209

                     43                     44                     45
                      A                      A                      A
 Frequencies --   1215.5853              1234.0996              1249.6530
 Red. masses --      1.4677                 1.6399                 1.4591
 Frc consts  --      1.2778                 1.4716                 1.3425
 IR Inten    --     31.5549                55.9599                12.7723

                     46                     47                     48
                      A                      A                      A
 Frequencies --   1289.5515              1301.8306              1322.6566
 Red. masses --      1.2202                 1.1670                 1.1488
 Frc consts  --      1.1955                 1.1652                 1.1841
 IR Inten    --     21.0249                14.2560                 7.6280

                     49                     50                     51
                      A                      A                      A
 Frequencies --   1331.6303              1346.9426              1352.1656
 Red. masses --      1.2841                 1.2422                 1.2708
 Frc consts  --      1.3415                 1.3278                 1.3690
 IR Inten    --      7.5675                 2.1105                 9.3700

                     52                     53                     54
                      A                      A                      A
 Frequencies --   1362.4219              1383.2247              1386.4845
 Red. masses --      1.3540                 1.3896                 1.4637
 Frc consts  --      1.4808                 1.5665                 1.6578
 IR Inten    --      4.7643                 8.4754                 0.3485

                     55                     56                     57
                      A                      A                      A
 Frequencies --   1391.4676              1399.2814              1407.1511
 Red. masses --      1.6059                 1.2817                 1.4807
 Frc consts  --      1.8320                 1.4786                 1.7274
 IR Inten    --      4.3923                16.8542                15.4321

                     58                     59                     60
                      A                      A                      A
 Frequencies --   1417.2325              1418.9032              1434.1712
 Red. masses --      1.3730                 1.4311                 1.4624
 Frc consts  --      1.6248                 1.6975                 1.7722
 IR Inten    --      7.7064                 9.4478                 7.1257

                     61                     62                     63
                      A                      A                      A
 Frequencies --   1437.5771              1475.3370              1480.9823
 Red. masses --      1.3905                 1.1041                 1.0910
 Frc consts  --      1.6931                 1.4159                 1.4098
 IR Inten    --     18.2247                 4.9625                 9.0774

                     64                     65                     66
                      A                      A                      A
 Frequencies --   1481.6736              1495.1649              1496.4161
 Red. masses --      1.0867                 1.1078                 1.1125
 Frc consts  --      1.4056                 1.4591                 1.4677
 IR Inten    --      7.8314                15.3043                 8.0131

                     67                     68                     69
                      A                      A                      A
 Frequencies --   1501.5444              1508.6826              1514.7641
 Red. masses --      1.0865                 1.0928                 1.1016
 Frc consts  --      1.4434                 1.4655                 1.4893
 IR Inten    --      1.3172                 3.3530                 8.5138

                     70                     71                     72
                      A                      A                      A
 Frequencies --   3018.4906              3021.4264              3043.6111
 Red. masses --      1.0694                 1.0704                 1.0788
 Frc consts  --      5.7409                 5.7571                 5.8882
 IR Inten    --     26.1275                93.9294                31.1422

                     73                     74                     75
                      A                      A                      A
 Frequencies --   3049.3942              3056.3495              3063.4398
 Red. masses --      1.0692                 1.0694                 1.0633
 Frc consts  --      5.8581                 5.8858                 5.8794
 IR Inten    --     46.3458                62.2560                39.1985

                     76                     77                     78
                      A                      A                      A
 Frequencies --   3070.1517              3073.5324              3077.5653
 Red. masses --      1.0623                 1.0632                 1.0626
 Frc consts  --      5.8996                 5.9177                 5.9299
 IR Inten    --     46.3700                27.5015                16.0247

                     79                     80                     81
                      A                      A                      A
 Frequencies --   3097.2577              3114.2075              3119.3249
 Red. masses --      1.0855                 1.0979                 1.0986
 Frc consts  --      6.1353                 6.2737                 6.2981
 IR Inten    --     74.8289                36.8504                38.3115

                     82                     83                     84
                      A                      A                      A
 Frequencies --   3119.8622              3123.4985              3129.0914
 Red. masses --      1.1020                 1.0997                 1.1038
 Frc consts  --      6.3196                 6.3214                 6.3679
 IR Inten    --     68.2015                36.7381                45.2723

                     85                     86                     87
                      A                      A                      A
 Frequencies --   3131.4147              3135.0251              3136.4478
 Red. masses --      1.0950                 1.0952                 1.0975
 Frc consts  --      6.3262                 6.3421                 6.3612
 IR Inten    --     42.6182                38.2134                45.8654

 - Thermochemistry -
 -------------------
 Temperature   298.150 Kelvin.  Pressure   1.00000 Atm.
 Atom     1 has atomic number  6 and mass  12.00000

 Molecular mass:   186.12559 amu.
 Principal axes and moments of inertia in atomic units:
                           1         2         3
     Eigenvalues --   939.515014378.462494492.92449
           X            0.99988  -0.01446  -0.00535
           Y            0.01450   0.99988   0.00623
           Z            0.00525  -0.00631   0.99997
 This molecule is an asymmetric top.
 Rotational symmetry number  1.
 Warning -- assumption of classical behavior for rotation
           may cause significant error
 Rotational temperatures (Kelvin)      0.09219     0.01978     0.01928
 Rotational constants (GHZ):           1.92093     0.41219     0.40169
 Zero-point vibrational energy     737584.6 (Joules/Mol)
                                  176.28696 (Kcal/Mol)
 Warning -- explicit consideration of  17 degrees of freedom as
           vibrations may cause significant error
 Vibrational temperatures:     56.41    92.12   147.56   219.49   264.81
          (Kelvin)            337.84   359.08   400.39   502.44   532.24
                              551.68   625.30   648.10   667.31   696.47
                              768.51   829.99   911.91  1043.47  1187.93
                             1198.18  1208.28  1266.60  1282.98  1291.67
                             1315.04  1337.36  1359.27  1412.17  1439.21
                             1478.57  1501.96  1526.99  1531.81  1543.77
                             1606.67  1649.81  1664.05  1694.49  1700.52
                             1707.93  1743.73  1748.96  1775.59  1797.97
                             1855.38  1873.04  1903.01  1915.92  1937.95
                             1945.46  1960.22  1990.15  1994.84  2002.01
                             2013.25  2024.58  2039.08  2041.49  2063.45
                             2068.35  2122.68  2130.80  2131.80  2151.21
                             2153.01  2160.39  2170.66  2179.41  4342.93
                             4347.16  4379.08  4387.40  4397.41  4407.61
                             4417.26  4422.13  4427.93  4456.26  4480.65
                             4488.01  4488.79  4494.02  4502.06  4505.41
                             4510.60  4512.65

 Zero-point correction=                           0.280931 (Hartree/Particle)
 Thermal correction to Energy=                    0.292601
 Thermal correction to Enthalpy=                  0.293545
 Thermal correction to Gibbs Free Energy=         0.242782
 Sum of electronic and zero-point Energies=           -617.223666
 Sum of electronic and thermal Energies=              -617.211996
 Sum of electronic and thermal Enthalpies=            -617.211052
 Sum of electronic and thermal Free Energies=         -617.261815

                     E (Thermal)             CV                S
                      KCal/Mol        Cal/Mol-Kelvin    Cal/Mol-Kelvin
 Total                  183.610             46.606            106.841
 Electronic               0.000              0.000              0.000
 Translational            0.889              2.981             41.570
 Rotational               0.889              2.981             31.292
 Vibrational            181.833             40.645             33.980
 Vibration     1          0.594              1.981              5.299
 Vibration     2          0.597              1.971              4.329
 Vibration     3          0.605              1.947              3.405
 Vibration     4          0.619              1.900              2.640
 Vibration     5          0.631              1.862              2.287
 Vibration     6          0.655              1.788              1.842
 Vibration     7          0.662              1.763              1.734
 Vibration     8          0.679              1.714              1.544
 Vibration     9          0.726              1.577              1.170
 Vibration    10          0.742              1.534              1.080
 Vibration    11          0.753              1.506              1.026
 Vibration    12          0.795              1.395              0.844
 Vibration    13          0.809              1.360              0.794
 Vibration    14          0.821              1.330              0.755
 Vibration    15          0.840              1.285              0.699
 Vibration    16          0.889              1.175              0.578
 Vibration    17          0.933              1.081              0.491

 Optimization completed.
    -- Stationary point found.
 Normal termination of Gaussian 16 at Sun Nov  4 23:04:46 2018.
