 Gaussian 16, Revision A.03,
 Gaussian 16:  ES64L-G16RevA.03 25-Dec-2016

 ----------------------------------------------------------------------
 #M062X/6-311++G(2d,2p) opt=ModRedundant freq=noraman SCRF=(Solvent=Wat
 er)
 ----------------------------------------------------------------------

 ----------------------------
 D_1a_4e_D_PSI.inp_extract_14
 ----------------------------
 Symbolic Z-matrix:
 Charge =  0 Multiplicity = 1

 SCF Done:  E(RM062X) =  -617.502119111     A.U. after   12 cycles
 SCF Done:  E(RM062X) =  -617.504064814     A.U. after   11 cycles
 SCF Done:  E(RM062X) =  -617.504369899     A.U. after   10 cycles
 SCF Done:  E(RM062X) =  -617.504440468     A.U. after   10 cycles
 SCF Done:  E(RM062X) =  -617.504470233     A.U. after    8 cycles
 SCF Done:  E(RM062X) =  -617.504477079     A.U. after    9 cycles
 SCF Done:  E(RM062X) =  -617.504477783     A.U. after    7 cycles
 SCF Done:  E(RM062X) =  -617.504477880     A.U. after    6 cycles
 Optimization completed.
    -- Stationary point found.
 Normal termination of Gaussian 16 at Sun Nov  4 22:03:25 2018.

 ----------------------------------------------------------------------
 #N Geom=AllCheck Guess=TCheck SCRF=Check GenChk RM062X/6-311++G(2d,2p)
  Freq
 ----------------------------------------------------------------------

 Structure from the checkpoint file:  "D_1a_4e_D_PSI.inp_extract_14.chk"
 ----------------------------
 D_1a_4e_D_PSI.inp_extract_14
 ----------------------------
 Charge =  0 Multiplicity = 1

                         Standard orientation:
 ---------------------------------------------------------------------
 Center     Atomic      Atomic             Coordinates (Angstroms)
 Number     Number       Type             X           Y           Z
 ---------------------------------------------------------------------
      1          6           0       -3.340564    0.769529   -0.694013
      2          6           0       -1.292197   -0.500018    0.884869
      3          6           0        1.046696   -0.456731    0.355398
      4          6           0       -3.122607   -0.737147   -0.821208
      5          8           0        2.688083    1.332403    0.352403
      6          6           0        3.606776    0.578274   -0.425956
      7          6           0       -2.044058    1.438791   -0.271344
      8          6           0        2.008970   -1.337745   -0.425555
      9          6           0        1.343004    1.012116    0.044814
     10          6           0        3.451744   -0.909970   -0.162267
     11          8           0       -1.542497    0.887068    0.947297
     12          8           0       -0.272782   -0.821489   -0.027805
     13          6           0       -2.537058   -1.275353    0.483255
     14          1           0       -4.107651    0.970732    0.057643
     15          1           0       -3.677863    1.201310   -1.636707
     16          1           0        1.174261   -0.623959    1.431481
     17          1           0       -4.057633   -1.246756   -1.051123
     18          1           0       -2.431912   -0.937248   -1.642930
     19          1           0        4.599661    0.930632   -0.154677
     20          1           0        3.439580    0.792324   -1.488787
     21          1           0       -1.290968    1.328746   -1.056769
     22          1           0       -2.182743    2.499826   -0.075958
     23          1           0        1.777739   -1.227556   -1.488839
     24          1           0        1.850451   -2.382687   -0.159719
     25          1           0        3.718250   -1.114594    0.876816
     26          1           0        4.140041   -1.469493   -0.795821
     27          1           0       -3.266243   -1.162288    1.287556
     28          1           0       -2.283792   -2.331716    0.406258
     29          1           0       -0.969543   -0.764823    1.894724
     30          1           0        1.146460    1.189946   -1.020795
     31          1           0        0.715234    1.673269    0.634526
 ---------------------------------------------------------------------

 SCF Done:  E(RM062X) =  -617.504477880     A.U. after    1 cycles

 The electronic state is 1-A.
 Alpha  occ. eigenvalues --  -19.63527 -19.63065 -19.63005 -10.63598 -10.58867
 Alpha  occ. eigenvalues --  -10.58000 -10.57838 -10.57711 -10.53265 -10.53224
 Alpha  occ. eigenvalues --  -10.53087 -10.53031 -10.52911  -1.20152  -1.16527
 Alpha  occ. eigenvalues --   -1.13657  -0.91138  -0.89822  -0.87231  -0.84405
 Alpha  occ. eigenvalues --   -0.74578  -0.74020  -0.72977  -0.71048  -0.65860
 Alpha  occ. eigenvalues --   -0.64028  -0.60076  -0.58903  -0.57102  -0.55869
 Alpha  occ. eigenvalues --   -0.54059  -0.53373  -0.52414  -0.50725  -0.49903
 Alpha  occ. eigenvalues --   -0.47977  -0.47100  -0.45836  -0.45220  -0.44588
 Alpha  occ. eigenvalues --   -0.43872  -0.43675  -0.40568  -0.40031  -0.39219
 Alpha  occ. eigenvalues --   -0.38588  -0.38053  -0.36385  -0.36051  -0.33124
 Alpha  occ. eigenvalues --   -0.31885
 Alpha virt. eigenvalues --   -0.00033   0.00744   0.00783   0.01150   0.02187
 Alpha virt. eigenvalues --    0.02487   0.02608   0.03390   0.03734   0.04424
 Alpha virt. eigenvalues --    0.04659   0.04705   0.05436   0.06125   0.07198

 Mulliken charges:
               1
     1  C   -0.388330
     2  C   -0.040695
     3  C   -0.042591
     4  C   -0.283912
     5  O   -0.334048
     6  C   -0.125488
     7  C   -0.111645
     8  C   -0.247650
     9  C   -0.462172
    10  C   -0.378152
    11  O   -0.287782
    12  O   -0.278828
    13  C   -0.407051
    14  H    0.167883
    15  H    0.171760
    16  H    0.232675
    17  H    0.185670
    18  H    0.170394
    19  H    0.206810
    20  H    0.129021
    21  H    0.112852
    22  H    0.206362
    23  H    0.200996
    24  H    0.170597
    25  H    0.164642
    26  H    0.182553
    27  H    0.187683
    28  H    0.186418
    29  H    0.240102
    30  H    0.231887
    31  H    0.240037
 Sum of Mulliken charges =  -0.00000

 Dipole moment (field-independent basis, Debye):
    X=             -0.5866    Y=             -1.8045    Z=             -1.5374  Tot=              2.4421
 Quadrupole moment (field-independent basis, Debye-Ang):
   XX=            -72.4386   YY=            -82.4651   ZZ=            -80.4059
   XY=             -5.0018   XZ=             -1.8046   YZ=             -5.2737

  Exact polarizability: 175.975  -1.768 158.292   0.358  -2.261 151.266
 Approx polarizability: 147.116  -1.502 141.526   0.072   0.037 143.725

 ******    1 imaginary frequencies (negative Signs) ******

                      1                      2                      3
                      A                      A                      A
 Frequencies --    -14.8183                74.7582               103.8739
 Red. masses --      3.4693                 3.5295                 3.8148
 Frc consts  --      0.0004                 0.0116                 0.0243
 IR Inten    --      0.1940                 0.7055                 0.9851

                      4                      5                      6
                      A                      A                      A
 Frequencies --    130.1193               206.7902               236.4649
 Red. masses --      3.1311                 2.9318                 2.2510
 Frc consts  --      0.0312                 0.0739                 0.0742
 IR Inten    --      3.3410                 1.4450                 5.5870

                      7                      8                      9
                      A                      A                      A
 Frequencies --    256.5797               269.9021               325.7579
 Red. masses --      2.6322                 3.1381                 2.9595
 Frc consts  --      0.1021                 0.1347                 0.1850
 IR Inten    --      1.8886                 1.6150                19.0372

                     10                     11                     12
                      A                      A                      A
 Frequencies --    362.8722               382.9166               437.7541
 Red. masses --      1.9996                 2.5362                 3.2296
 Frc consts  --      0.1551                 0.2191                 0.3646
 IR Inten    --      6.2860                22.5793                 6.3862

                     13                     14                     15
                      A                      A                      A
 Frequencies --    452.2789               461.4078               490.4164
 Red. masses --      3.8722                 3.3293                 2.1486
 Frc consts  --      0.4667                 0.4176                 0.3045
 IR Inten    --      2.7059                 0.2418                 1.2434

                     16                     17                     18
                      A                      A                      A
 Frequencies --    532.5891               574.6701               623.9540
 Red. masses --      2.2161                 2.1341                 3.7366
 Frc consts  --      0.3704                 0.4152                 0.8571
 IR Inten    --      1.2246                14.2319                 3.0869

                     19                     20                     21
                      A                      A                      A
 Frequencies --    717.7619               833.1322               835.2051
 Red. masses --      2.8993                 2.2983                 1.5831
 Frc consts  --      0.8800                 0.9399                 0.6506
 IR Inten    --      2.0762                 0.1850                 2.3893

                     22                     23                     24
                      A                      A                      A
 Frequencies --    844.1610               877.6288               893.4160
 Red. masses --      2.9771                 1.3893                 2.3336
 Frc consts  --      1.2500                 0.6305                 1.0975
 IR Inten    --     10.4719                 9.3344                18.6754

                     25                     26                     27
                      A                      A                      A
 Frequencies --    900.9996               907.2000               933.3976
 Red. masses --      2.4011                 2.4092                 1.6235
 Frc consts  --      1.1484                 1.1682                 0.8334
 IR Inten    --     19.0165                14.0088                20.4686

                     28                     29                     30
                      A                      A                      A
 Frequencies --    946.2773               987.4670               996.6259
 Red. masses --      2.2738                 2.4477                 1.3695
 Frc consts  --      1.1996                 1.4062                 0.8014
 IR Inten    --     16.7809                68.4138                 7.7593

                     31                     32                     33
                      A                      A                      A
 Frequencies --   1027.5478              1044.3736              1055.9076
 Red. masses --      2.2234                 2.2037                 1.7778
 Frc consts  --      1.3832                 1.4161                 1.1679
 IR Inten    --     52.9576                45.0991                69.1323

                     34                     35                     36
                      A                      A                      A
 Frequencies --   1063.4274              1072.4246              1114.4981
 Red. masses --      1.5350                 2.2445                 4.5118
 Frc consts  --      1.0228                 1.5209                 3.3019
 IR Inten    --     59.0482                20.3774               285.0056

                     37                     38                     39
                      A                      A                      A
 Frequencies --   1142.7548              1153.0279              1163.7223
 Red. masses --      2.4485                 3.1010                 2.4641
 Frc consts  --      1.8839                 2.4291                 1.9661
 IR Inten    --      8.5220               129.7694                30.3852

                     40                     41                     42
                      A                      A                      A
 Frequencies --   1176.0834              1193.4177              1210.4060
 Red. masses --      3.6311                 2.2839                 1.3943
 Frc consts  --      2.9591                 1.9165                 1.2035
 IR Inten    --    177.4764                69.0977                18.5807

                     43                     44                     45
                      A                      A                      A
 Frequencies --   1220.8257              1234.5632              1251.7525
 Red. masses --      1.6556                 1.6467                 1.4835
 Frc consts  --      1.4538                 1.4787                 1.3696
 IR Inten    --     13.5155                66.4826                32.0480

                     46                     47                     48
                      A                      A                      A
 Frequencies --   1289.6561              1306.1898              1321.3060
 Red. masses --      1.2191                 1.1818                 1.1549
 Frc consts  --      1.1946                 1.1879                 1.1880
 IR Inten    --     18.7618                27.6689                 7.7609

                     49                     50                     51
                      A                      A                      A
 Frequencies --   1330.8996              1339.9935              1350.9588
 Red. masses --      1.2927                 1.2127                 1.2269
 Frc consts  --      1.3491                 1.2830                 1.3193
 IR Inten    --      7.1219                11.4234                 8.6102

                     52                     53                     54
                      A                      A                      A
 Frequencies --   1360.4624              1383.1624              1384.8403
 Red. masses --      1.3372                 1.4488                 1.4662
 Frc consts  --      1.4582                 1.6331                 1.6566
 IR Inten    --      5.0461                 2.1944                 4.2662

                     55                     56                     57
                      A                      A                      A
 Frequencies --   1390.0152              1393.9092              1401.5714
 Red. masses --      1.5898                 1.5937                 1.2779
 Frc consts  --      1.8098                 1.8244                 1.4790
 IR Inten    --     15.2599                 7.7013                22.3020

                     58                     59                     60
                      A                      A                      A
 Frequencies --   1405.6101              1418.9075              1432.7941
 Red. masses --      1.4040                 1.4328                 1.3892
 Frc consts  --      1.6343                 1.6996                 1.6803
 IR Inten    --     14.1241                12.0012                20.2296

                     61                     62                     63
                      A                      A                      A
 Frequencies --   1443.1913              1476.2926              1481.3715
 Red. masses --      1.3667                 1.1055                 1.0923
 Frc consts  --      1.6771                 1.4196                 1.4122
 IR Inten    --      2.3003                 4.4318                 7.9394

                     64                     65                     66
                      A                      A                      A
 Frequencies --   1482.7102              1495.9105              1496.7757
 Red. masses --      1.0860                 1.1075                 1.1183
 Frc consts  --      1.4066                 1.4602                 1.4761
 IR Inten    --      8.3867                 9.2576                14.4775

                     67                     68                     69
                      A                      A                      A
 Frequencies --   1503.3900              1509.4487              1516.9908
 Red. masses --      1.0825                 1.0935                 1.0976
 Frc consts  --      1.4416                 1.4680                 1.4881
 IR Inten    --      1.9830                 2.9886                 8.1455

                     70                     71                     72
                      A                      A                      A
 Frequencies --   3011.3983              3019.8074              3031.8524
 Red. masses --      1.0713                 1.0705                 1.0826
 Frc consts  --      5.7240                 5.7517                 5.8633
 IR Inten    --     29.6425                82.5945                57.4137

                     73                     74                     75
                      A                      A                      A
 Frequencies --   3057.2882              3059.6029              3064.3059
 Red. masses --      1.0685                 1.0653                 1.0627
 Frc consts  --      5.8843                 5.8754                 5.8793
 IR Inten    --     44.5131                40.6566                45.2601

                     76                     77                     78
                      A                      A                      A
 Frequencies --   3068.2187              3070.7388              3072.0969
 Red. masses --      1.0791                 1.0619                 1.0644
 Frc consts  --      5.9852                 5.8994                 5.9186
 IR Inten    --     36.2733                41.3975                24.0109

                     79                     80                     81
                      A                      A                      A
 Frequencies --   3082.2918              3114.3474              3116.6898
 Red. masses --      1.0676                 1.0976                 1.0980
 Frc consts  --      5.9758                 6.2725                 6.2841
 IR Inten    --     67.6316                38.5195                38.1272

                     82                     83                     84
                      A                      A                      A
 Frequencies --   3119.6963              3121.2569              3132.3481
 Red. masses --      1.1023                 1.1030                 1.1028
 Frc consts  --      6.3207                 6.3311                 6.3750
 IR Inten    --     66.9857                54.6352                39.0128

                     85                     86                     87
                      A                      A                      A
 Frequencies --   3133.0818              3135.1806              3164.9401
 Red. masses --      1.0947                 1.0992                 1.0933
 Frc consts  --      6.3312                 6.3660                 6.4524
 IR Inten    --     48.4488                43.5245                16.1059

 - Thermochemistry -
 -------------------
 Temperature   298.150 Kelvin.  Pressure   1.00000 Atm.
 Atom     1 has atomic number  6 and mass  12.00000

 Molecular mass:   186.12559 amu.
 Principal axes and moments of inertia in atomic units:
                           1         2         3
     Eigenvalues --   971.627984136.326474594.78401
           X            0.99997  -0.00705   0.00099
           Y            0.00708   0.99938  -0.03447
           Z           -0.00074   0.03448   0.99941
 This molecule is an asymmetric top.
 Rotational symmetry number  1.
 Warning -- assumption of classical behavior for rotation
           may cause significant error
 Rotational temperatures (Kelvin)      0.08914     0.02094     0.01885
 Rotational constants (GHZ):           1.85744     0.43631     0.39278
    1 imaginary frequencies ignored.
 Zero-point vibrational energy     736975.1 (Joules/Mol)
                                  176.14127 (Kcal/Mol)
 Warning -- explicit consideration of  16 degrees of freedom as
           vibrations may cause significant error
 Vibrational temperatures:    107.56   149.45   187.21   297.53   340.22
          (Kelvin)            369.16   388.33   468.69   522.09   550.93
                              629.83   650.73   663.86   705.60   766.28
                              826.82   897.73  1032.70  1198.69  1201.67
                             1214.56  1262.71  1285.43  1296.34  1305.26
                             1342.95  1361.48  1420.74  1433.92  1478.41
                             1502.62  1519.22  1530.03  1542.98  1603.51
                             1644.17  1658.95  1674.34  1692.12  1717.06
                             1741.50  1756.50  1776.26  1800.99  1855.53
                             1879.32  1901.06  1914.87  1927.95  1943.73
                             1957.40  1990.06  1992.48  1999.92  2005.52
                             2016.55  2022.36  2041.49  2061.47  2076.43
                             2124.06  2131.36  2133.29  2152.28  2153.53
                             2163.04  2171.76  2182.61  4332.73  4344.83
                             4362.16  4398.76  4402.09  4408.85  4414.48
                             4418.11  4420.06  4434.73  4480.85  4484.22
                             4488.55  4490.79  4506.75  4507.81  4510.83
                             4553.64

 Zero-point correction=                           0.280699 (Hartree/Particle)
 Thermal correction to Energy=                    0.291526
 Thermal correction to Enthalpy=                  0.292471
 Thermal correction to Gibbs Free Energy=         0.244274
 Sum of electronic and zero-point Energies=           -617.223779
 Sum of electronic and thermal Energies=              -617.212951
 Sum of electronic and thermal Enthalpies=            -617.212007
 Sum of electronic and thermal Free Energies=         -617.260203

                     E (Thermal)             CV                S
                      KCal/Mol        Cal/Mol-Kelvin    Cal/Mol-Kelvin
 Total                  182.936             44.699            101.437
 Electronic               0.000              0.000              0.000
 Translational            0.889              2.981             41.570
 Rotational               0.889              2.981             31.291
 Vibrational            181.158             38.738             28.577
 Vibration     1          0.599              1.966              4.024
 Vibration     2          0.605              1.946              3.380
 Vibration     3          0.612              1.923              2.944
 Vibration     4          0.641              1.830              2.072
 Vibration     5          0.655              1.785              1.829
 Vibration     6          0.666              1.752              1.685
 Vibration     7          0.674              1.729              1.597
 Vibration     8          0.710              1.624              1.281
 Vibration     9          0.737              1.549              1.110
 Vibration    10          0.752              1.507              1.028
 Vibration    11          0.798              1.388              0.834
 Vibration    12          0.811              1.356              0.789
 Vibration    13          0.819              1.336              0.762
 Vibration    14          0.846              1.271              0.683
 Vibration    15          0.888              1.178              0.581
 Vibration    16          0.931              1.086              0.495

 Optimization completed.
    -- Stationary point found.
 Normal termination of Gaussian 16 at Sun Nov  4 22:58:21 2018.
