 Gaussian 16, Revision A.03,
 Gaussian 16:  ES64L-G16RevA.03 25-Dec-2016

 ----------------------------------------------------------------------
 #M062X/6-311++G(2d,2p) opt=ModRedundant freq=noraman SCRF=(Solvent=Wat
 er)
 ----------------------------------------------------------------------

 ---------------------------
 D_1a_4e_D_PSI.inp_extract_2
 ---------------------------
 Symbolic Z-matrix:
 Charge =  0 Multiplicity = 1

 SCF Done:  E(RM062X) =  -617.496803379     A.U. after   12 cycles
 SCF Done:  E(RM062X) =  -617.498463124     A.U. after   11 cycles
 SCF Done:  E(RM062X) =  -617.498818149     A.U. after   10 cycles
 SCF Done:  E(RM062X) =  -617.498971407     A.U. after   10 cycles
 SCF Done:  E(RM062X) =  -617.498980922     A.U. after    8 cycles
 SCF Done:  E(RM062X) =  -617.498981799     A.U. after    8 cycles
 SCF Done:  E(RM062X) =  -617.498981835     A.U. after    6 cycles
 Optimization completed.
    -- Stationary point found.
 Normal termination of Gaussian 16 at Sun Nov  4 21:59:35 2018.

 ----------------------------------------------------------------------
 #N Geom=AllCheck Guess=TCheck SCRF=Check GenChk RM062X/6-311++G(2d,2p)
  Freq
 ----------------------------------------------------------------------

 Structure from the checkpoint file:  "D_1a_4e_D_PSI.inp_extract_2.chk"
 ---------------------------
 D_1a_4e_D_PSI.inp_extract_2
 ---------------------------
 Charge =  0 Multiplicity = 1

                         Standard orientation:
 ---------------------------------------------------------------------
 Center     Atomic      Atomic             Coordinates (Angstroms)
 Number     Number       Type             X           Y           Z
 ---------------------------------------------------------------------
      1          6           0       -3.579546    0.530459   -0.403122
      2          6           0       -1.061902   -0.291731    0.722455
      3          6           0        1.015477   -0.179587   -0.569946
      4          6           0       -3.223857   -0.955297   -0.367521
      5          8           0        3.306418   -1.005628   -0.404460
      6          6           0        3.712724    0.135070    0.339873
      7          6           0       -2.309640    1.365218   -0.429568
      8          6           0        1.398353    1.086155    0.189920
      9          6           0        1.948334   -1.322182   -0.171053
     10          6           0        2.888651    1.354214   -0.036055
     11          8           0       -1.463322    1.059147    0.678359
     12          8           0       -0.320810   -0.660740   -0.412534
     13          6           0       -2.264102   -1.222213    0.791551
     14          1           0       -4.157259    0.793157    0.486465
     15          1           0       -4.187919    0.769621   -1.275913
     16          1           0        1.136220    0.007833   -1.639531
     17          1           0       -4.120291   -1.565170   -0.260359
     18          1           0       -2.747651   -1.238577   -1.307992
     19          1           0        4.767935    0.283539    0.121082
     20          1           0        3.605857   -0.076218    1.411121
     21          1           0       -1.761703    1.195685   -1.360993
     22          1           0       -2.527001    2.427835   -0.347242
     23          1           0        1.218335    0.953382    1.258616
     24          1           0        0.796176    1.929781   -0.140525
     25          1           0        3.070246    1.593183   -1.086202
     26          1           0        3.211742    2.210060    0.556768
     27          1           0       -2.769637   -1.034670    1.740551
     28          1           0       -1.913968   -2.253549    0.795158
     29          1           0       -0.455290   -0.374774    1.625495
     30          1           0        1.789601   -1.554441    0.891120
     31          1           0        1.719355   -2.209541   -0.757745
 ---------------------------------------------------------------------

 SCF Done:  E(RM062X) =  -617.498981835     A.U. after    1 cycles

 The electronic state is 1-A.
 Alpha  occ. eigenvalues --  -19.63183 -19.63119 -19.62723 -10.63528 -10.58915
 Alpha  occ. eigenvalues --  -10.58041 -10.57937 -10.57681 -10.53300 -10.53256
 Alpha  occ. eigenvalues --  -10.52995 -10.52928 -10.52815  -1.19837  -1.16657
 Alpha  occ. eigenvalues --   -1.13277  -0.90997  -0.89579  -0.87372  -0.84499
 Alpha  occ. eigenvalues --   -0.74957  -0.74083  -0.72753  -0.70867  -0.66539
 Alpha  occ. eigenvalues --   -0.62680  -0.60196  -0.58860  -0.56425  -0.55624
 Alpha  occ. eigenvalues --   -0.54260  -0.53350  -0.52518  -0.50690  -0.49628
 Alpha  occ. eigenvalues --   -0.48575  -0.46394  -0.46220  -0.45319  -0.45019
 Alpha  occ. eigenvalues --   -0.43902  -0.43216  -0.40892  -0.40160  -0.39130
 Alpha  occ. eigenvalues --   -0.38491  -0.37627  -0.36040  -0.35559  -0.33289
 Alpha  occ. eigenvalues --   -0.31484
 Alpha virt. eigenvalues --   -0.00068   0.00705   0.00800   0.01100   0.02170
 Alpha virt. eigenvalues --    0.02510   0.02658   0.03325   0.03574   0.04407
 Alpha virt. eigenvalues --    0.04604   0.04966   0.05596   0.05900   0.07080

 Mulliken charges:
               1
     1  C   -0.469349
     2  C    0.032491
     3  C   -0.270411
     4  C   -0.272987
     5  O   -0.350151
     6  C   -0.195335
     7  C   -0.045339
     8  C   -0.086002
     9  C   -0.164345
    10  C   -0.479290
    11  O   -0.253100
    12  O   -0.281058
    13  C   -0.570838
    14  H    0.160210
    15  H    0.173264
    16  H    0.253398
    17  H    0.185467
    18  H    0.177766
    19  H    0.213074
    20  H    0.137028
    21  H    0.142401
    22  H    0.206564
    23  H    0.233777
    24  H    0.169444
    25  H    0.174217
    26  H    0.168723
    27  H    0.196377
    28  H    0.179345
    29  H    0.259624
    30  H    0.179800
    31  H    0.195236
 Sum of Mulliken charges =  -0.00000

 Dipole moment (field-independent basis, Debye):
    X=             -1.1639    Y=              1.1319    Z=              0.8078  Tot=              1.8133
 Quadrupole moment (field-independent basis, Debye-Ang):
   XX=            -78.6766   YY=            -81.1092   ZZ=            -79.8551
   XY=              6.7222   XZ=              5.1187   YZ=             -4.2715

  Exact polarizability: 175.012   2.375 159.571   0.732  -1.893 150.107
 Approx polarizability: 146.241   0.881 142.628  -0.732   0.454 143.340

 ******    1 imaginary frequencies (negative Signs) ******

                      1                      2                      3
                      A                      A                      A
 Frequencies --    -33.1905                56.5360               105.1437
 Red. masses --      3.7193                 3.9609                 3.5255
 Frc consts  --      0.0024                 0.0075                 0.0230
 IR Inten    --      0.2983                 1.4107                 3.5148

                      4                      5                      6
                      A                      A                      A
 Frequencies --    127.1857               208.8445               232.6646
 Red. masses --      3.1653                 2.8877                 3.0828
 Frc consts  --      0.0302                 0.0742                 0.0983
 IR Inten    --      0.7361                 4.0938                 3.7413

                      7                      8                      9
                      A                      A                      A
 Frequencies --    251.0055               269.7987               329.4613
 Red. masses --      2.1873                 2.6242                 2.8504
 Frc consts  --      0.0812                 0.1125                 0.1823
 IR Inten    --      4.8348                 1.7208                13.6762

                     10                     11                     12
                      A                      A                      A
 Frequencies --    368.7372               380.6207               434.5112
 Red. masses --      2.2509                 2.2166                 3.3824
 Frc consts  --      0.1803                 0.1892                 0.3763
 IR Inten    --      9.2367                15.3071                 2.8285

                     13                     14                     15
                      A                      A                      A
 Frequencies --    441.2018               460.1738               488.3338
 Red. masses --      2.8851                 3.2870                 2.6158
 Frc consts  --      0.3309                 0.4101                 0.3675
 IR Inten    --      7.3427                 2.1576                 1.9671

                     16                     17                     18
                      A                      A                      A
 Frequencies --    536.6305               578.8396               642.7620
 Red. masses --      2.0066                 2.4305                 4.2475
 Frc consts  --      0.3405                 0.4798                 1.0339
 IR Inten    --      7.3636                12.3522                 6.9070

                     19                     20                     21
                      A                      A                      A
 Frequencies --    709.8068               820.4815               835.8340
 Red. masses --      2.8655                 2.0166                 1.6045
 Frc consts  --      0.8506                 0.7998                 0.6604
 IR Inten    --      2.1573                 1.6525                 1.6389

                     22                     23                     24
                      A                      A                      A
 Frequencies --    841.9438               875.1895               889.1041
 Red. masses --      3.4713                 1.3885                 2.3263
 Frc consts  --      1.4498                 0.6266                 1.0835
 IR Inten    --      9.9331                 9.3928                13.3603

                     25                     26                     27
                      A                      A                      A
 Frequencies --    895.7173               910.2405               927.1643
 Red. masses --      2.4740                 2.3795                 1.8048
 Frc consts  --      1.1695                 1.1616                 0.9141
 IR Inten    --     11.6680                28.0408                29.9543

                     28                     29                     30
                      A                      A                      A
 Frequencies --    950.2417               980.7896               993.1615
 Red. masses --      2.3023                 1.8248                 1.7789
 Frc consts  --      1.2249                 1.0342                 1.0338
 IR Inten    --     24.7914                55.8920                 8.7740

                     31                     32                     33
                      A                      A                      A
 Frequencies --   1012.1282              1042.0737              1057.9521
 Red. masses --      2.0061                 2.2680                 1.7329
 Frc consts  --      1.2108                 1.4511                 1.1428
 IR Inten    --     54.9740                52.2944                25.5342

                     34                     35                     36
                      A                      A                      A
 Frequencies --   1063.6630              1073.1961              1119.2760
 Red. masses --      1.5251                 2.2391                 4.6174
 Frc consts  --      1.0166                 1.5194                 3.4082
 IR Inten    --     72.9307                17.5003               300.0159

                     37                     38                     39
                      A                      A                      A
 Frequencies --   1144.4911              1154.1288              1156.7913
 Red. masses --      2.4131                 2.4828                 2.7051
 Frc consts  --      1.8623                 1.9485                 2.1328
 IR Inten    --      5.1150                38.2573               102.4309

                     40                     41                     42
                      A                      A                      A
 Frequencies --   1174.7696              1189.2702              1210.9992
 Red. masses --      4.1427                 2.2969                 1.4191
 Frc consts  --      3.3685                 1.9140                 1.2262
 IR Inten    --    239.6185                20.7813                22.9931

                     43                     44                     45
                      A                      A                      A
 Frequencies --   1217.5265              1233.4149              1253.3430
 Red. masses --      1.5140                 1.6618                 1.5245
 Frc consts  --      1.3223                 1.4895                 1.4109
 IR Inten    --     41.5624                47.9424                19.6016

                     46                     47                     48
                      A                      A                      A
 Frequencies --   1287.9948              1308.9630              1319.2063
 Red. masses --      1.2135                 1.1989                 1.1542
 Frc consts  --      1.1861                 1.2103                 1.1835
 IR Inten    --     13.6667                13.8733                 9.5986

                     49                     50                     51
                      A                      A                      A
 Frequencies --   1328.9286              1348.5821              1357.2496
 Red. masses --      1.2769                 1.2723                 1.2597
 Frc consts  --      1.3287                 1.3633                 1.3672
 IR Inten    --     10.2191                12.3441                 1.2406

                     52                     53                     54
                      A                      A                      A
 Frequencies --   1361.5162              1383.3806              1385.6250
 Red. masses --      1.3193                 1.4232                 1.4676
 Frc consts  --      1.4409                 1.6047                 1.6602
 IR Inten    --      9.9769                 5.9530                 1.3763

                     55                     56                     57
                      A                      A                      A
 Frequencies --   1389.3737              1397.8821              1398.7782
 Red. masses --      1.5977                 1.3116                 1.3723
 Frc consts  --      1.8171                 1.5100                 1.5820
 IR Inten    --      3.5231                17.3446                15.5240

                     58                     59                     60
                      A                      A                      A
 Frequencies --   1411.5362              1415.4351              1427.3435
 Red. masses --      1.3836                 1.4278                 1.4075
 Frc consts  --      1.6242                 1.6854                 1.6894
 IR Inten    --     14.4183                13.7560                 2.6217

                     61                     62                     63
                      A                      A                      A
 Frequencies --   1434.2143              1475.8373              1480.6198
 Red. masses --      1.3527                 1.1032                 1.0921
 Frc consts  --      1.6394                 1.4158                 1.4106
 IR Inten    --     23.0215                 4.9801                 8.0058

                     64                     65                     66
                      A                      A                      A
 Frequencies --   1482.7698              1490.7169              1495.0007
 Red. masses --      1.0862                 1.1146                 1.1089
 Frc consts  --      1.4070                 1.4593                 1.4602
 IR Inten    --      7.3594                 9.8629                15.4957

                     67                     68                     69
                      A                      A                      A
 Frequencies --   1500.3051              1508.2159              1512.6548
 Red. masses --      1.0898                 1.0935                 1.1020
 Frc consts  --      1.4453                 1.4655                 1.4857
 IR Inten    --      0.4947                 3.7511                 8.4483

                     70                     71                     72
                      A                      A                      A
 Frequencies --   3004.8680              3018.8786              3051.4087
 Red. masses --      1.0700                 1.0707                 1.0693
 Frc consts  --      5.6923                 5.7492                 5.8662
 IR Inten    --     56.2704                78.9654                54.5960

                     73                     74                     75
                      A                      A                      A
 Frequencies --   3062.5084              3065.8458              3069.5365
 Red. masses --      1.0630                 1.0811                 1.0644
 Frc consts  --      5.8739                 5.9872                 5.9087
 IR Inten    --     47.1411                23.7176                16.8584

                     76                     77                     78
                      A                      A                      A
 Frequencies --   3073.8120              3076.3685              3080.5549
 Red. masses --      1.0642                 1.0681                 1.0646
 Frc consts  --      5.9243                 5.9558                 5.9523
 IR Inten    --     32.8336                53.9271                13.4919

                     79                     80                     81
                      A                      A                      A
 Frequencies --   3093.2078              3112.9204              3119.7334
 Red. masses --      1.0805                 1.0981                 1.1023
 Frc consts  --      6.0912                 6.2694                 6.3211
 IR Inten    --     77.2921                38.9922                57.3601

                     82                     83                     84
                      A                      A                      A
 Frequencies --   3119.9205              3131.9601              3132.6786
 Red. masses --      1.1004                 1.1032                 1.0936
 Frc consts  --      6.3107                 6.3756                 6.3232
 IR Inten    --     54.1027                42.4786                49.2219

                     85                     86                     87
                      A                      A                      A
 Frequencies --   3134.5910              3135.1754              3139.8144
 Red. masses --      1.0949                 1.0976                 1.1009
 Frc consts  --      6.3387                 6.3564                 6.3944
 IR Inten    --     56.3684                25.9327                42.0643

 - Thermochemistry -
 -------------------
 Temperature   298.150 Kelvin.  Pressure   1.00000 Atm.
 Atom     1 has atomic number  6 and mass  12.00000

 Molecular mass:   186.12559 amu.
 Principal axes and moments of inertia in atomic units:
                           1         2         3
     Eigenvalues --   901.386814218.549624695.85502
           X            0.99989   0.01265   0.00722
           Y           -0.01240   0.99936  -0.03347
           Z           -0.00764   0.03338   0.99941
 This molecule is an asymmetric top.
 Rotational symmetry number  1.
 Warning -- assumption of classical behavior for rotation
           may cause significant error
 Rotational temperatures (Kelvin)      0.09609     0.02053     0.01844
 Rotational constants (GHZ):           2.00218     0.42781     0.38433
    1 imaginary frequencies ignored.
 Zero-point vibrational energy     736726.6 (Joules/Mol)
                                  176.08187 (Kcal/Mol)
 Warning -- explicit consideration of  16 degrees of freedom as
           vibrations may cause significant error
 Vibrational temperatures:     81.34   151.28   182.99   300.48   334.75
          (Kelvin)            361.14   388.18   474.02   530.53   547.63
                              625.16   634.79   662.09   702.60   772.09
                              832.82   924.79  1021.25  1180.49  1202.58
                             1211.37  1259.20  1279.22  1288.74  1309.63
                             1333.98  1367.19  1411.14  1428.94  1456.23
                             1499.31  1522.16  1530.37  1544.09  1610.39
                             1646.67  1660.53  1664.36  1690.23  1711.09
                             1742.36  1751.75  1774.61  1803.28  1853.14
                             1883.31  1898.04  1912.03  1940.31  1952.78
                             1958.92  1990.38  1993.61  1999.00  2011.24
                             2012.53  2030.89  2036.50  2053.63  2063.51
                             2123.40  2130.28  2133.38  2144.81  2150.97
                             2158.60  2169.99  2176.37  4323.33  4343.49
                             4390.30  4406.27  4411.07  4416.38  4422.53
                             4426.21  4432.23  4450.44  4478.80  4488.60
                             4488.87  4506.19  4507.23  4509.98  4510.82
                             4517.49

 Zero-point correction=                           0.280604 (Hartree/Particle)
 Thermal correction to Energy=                    0.291487
 Thermal correction to Enthalpy=                  0.292432
 Thermal correction to Gibbs Free Energy=         0.243951
 Sum of electronic and zero-point Energies=           -617.218378
 Sum of electronic and thermal Energies=              -617.207494
 Sum of electronic and thermal Enthalpies=            -617.206550
 Sum of electronic and thermal Free Energies=         -617.255030

                     E (Thermal)             CV                S
                      KCal/Mol        Cal/Mol-Kelvin    Cal/Mol-Kelvin
 Total                  182.911             44.777            102.035
 Electronic               0.000              0.000              0.000
 Translational            0.889              2.981             41.570
 Rotational               0.889              2.981             31.257
 Vibrational            181.134             38.815             29.208
 Vibration     1          0.596              1.975              4.575
 Vibration     2          0.605              1.945              3.357
 Vibration     3          0.611              1.926              2.988
 Vibration     4          0.642              1.827              2.054
 Vibration     5          0.653              1.791              1.858
 Vibration     6          0.663              1.761              1.724
 Vibration     7          0.674              1.729              1.597
 Vibration     8          0.712              1.617              1.263
 Vibration     9          0.741              1.536              1.085
 Vibration    10          0.750              1.511              1.037
 Vibration    11          0.795              1.395              0.844
 Vibration    12          0.801              1.380              0.823
 Vibration    13          0.818              1.338              0.766
 Vibration    14          0.844              1.276              0.688
 Vibration    15          0.892              1.169              0.573
 Vibration    16          0.935              1.077              0.488

 Optimization completed.
    -- Stationary point found.
 Normal termination of Gaussian 16 at Sun Nov  4 23:03:47 2018.
