 Gaussian 16, Revision A.03,
 Gaussian 16:  ES64L-G16RevA.03 25-Dec-2016

 ----------------------------------------------------------------------
 #M062X/6-311++G(2d,2p) opt=ModRedundant freq=noraman SCRF=(Solvent=Wat
 er)
 ----------------------------------------------------------------------

 ---------------------------
 D_1a_4e_D_PSI.inp_extract_1
 ---------------------------
 Symbolic Z-matrix:
 Charge =  0 Multiplicity = 1

 SCF Done:  E(RM062X) =  -617.498170363     A.U. after   12 cycles
 SCF Done:  E(RM062X) =  -617.499856992     A.U. after   11 cycles
 SCF Done:  E(RM062X) =  -617.500176279     A.U. after   10 cycles
 SCF Done:  E(RM062X) =  -617.500289751     A.U. after   10 cycles
 SCF Done:  E(RM062X) =  -617.500295195     A.U. after    8 cycles
 SCF Done:  E(RM062X) =  -617.500295578     A.U. after    7 cycles
 Optimization completed.
    -- Stationary point found.
 Normal termination of Gaussian 16 at Sun Nov  4 21:56:12 2018.

 ----------------------------------------------------------------------
 #N Geom=AllCheck Guess=TCheck SCRF=Check GenChk RM062X/6-311++G(2d,2p)
  Freq
 ----------------------------------------------------------------------

 Structure from the checkpoint file:  "D_1a_4e_D_PSI.inp_extract_1.chk"
 ---------------------------
 D_1a_4e_D_PSI.inp_extract_1
 ---------------------------
 Charge =  0 Multiplicity = 1

                         Standard orientation:
 ---------------------------------------------------------------------
 Center     Atomic      Atomic             Coordinates (Angstroms)
 Number     Number       Type             X           Y           Z
 ---------------------------------------------------------------------
      1          6           0       -3.597478    0.551801   -0.277167
      2          6           0       -1.023263   -0.344321    0.646908
      3          6           0        1.036745   -0.188492   -0.634593
      4          6           0       -3.229180   -0.926067   -0.399426
      5          8           0        3.289536   -1.036151   -0.273456
      6          6           0        3.674863    0.149689    0.409669
      7          6           0       -2.336108    1.399613   -0.286344
      8          6           0        1.398050    1.124253    0.050864
      9          6           0        1.914220   -1.318387   -0.097980
     10          6           0        2.903349    1.353810   -0.103632
     11          8           0       -1.432855    1.001974    0.745014
     12          8           0       -0.328465   -0.593004   -0.550070
     13          6           0       -2.215909   -1.288248    0.685652
     14          1           0       -4.133280    0.722226    0.659836
     15          1           0       -4.249116    0.865176   -1.093396
     16          1           0        1.234460   -0.087413   -1.703839
     17          1           0       -4.114595   -1.554675   -0.310952
     18          1           0       -2.793860   -1.113161   -1.382918
     19          1           0        4.744536    0.261771    0.246575
     20          1           0        3.498873    0.020310    1.484803
     21          1           0       -1.834457    1.323637   -1.255113
     22          1           0       -2.556211    2.447434   -0.094393
     23          1           0        1.150695    1.073205    1.113052
     24          1           0        0.825991    1.946492   -0.376693
     25          1           0        3.152894    1.511830   -1.155094
     26          1           0        3.210062    2.244300    0.445288
     27          1           0       -2.679365   -1.192549    1.669261
     28          1           0       -1.859874   -2.312096    0.579480
     29          1           0       -0.374412   -0.502273    1.509838
     30          1           0        1.696742   -1.479209    0.966375
     31          1           0        1.703460   -2.239468   -0.637730
 ---------------------------------------------------------------------

 SCF Done:  E(RM062X) =  -617.500295578     A.U. after    1 cycles

 The electronic state is 1-A.
 Alpha  occ. eigenvalues --  -19.63270 -19.63149 -19.62713 -10.63537 -10.58904
 Alpha  occ. eigenvalues --  -10.58062 -10.58008 -10.57655 -10.53279 -10.53211
 Alpha  occ. eigenvalues --  -10.53018 -10.52948 -10.52812  -1.19875  -1.16652
 Alpha  occ. eigenvalues --   -1.13336  -0.90966  -0.89591  -0.87290  -0.84591
 Alpha  occ. eigenvalues --   -0.74813  -0.74169  -0.72855  -0.70935  -0.66668
 Alpha  occ. eigenvalues --   -0.62587  -0.60296  -0.58844  -0.56472  -0.55378
 Alpha  occ. eigenvalues --   -0.54364  -0.53277  -0.52581  -0.50695  -0.49698
 Alpha  occ. eigenvalues --   -0.48700  -0.46403  -0.46221  -0.45278  -0.45010
 Alpha  occ. eigenvalues --   -0.44055  -0.43111  -0.40811  -0.40189  -0.39260
 Alpha  occ. eigenvalues --   -0.38470  -0.37667  -0.36455  -0.35409  -0.33136
 Alpha  occ. eigenvalues --   -0.31571
 Alpha virt. eigenvalues --   -0.00061   0.00694   0.00808   0.01103   0.02180
 Alpha virt. eigenvalues --    0.02522   0.02646   0.03312   0.03556   0.04393
 Alpha virt. eigenvalues --    0.04600   0.04974   0.05608   0.05917   0.07000

 Mulliken charges:
               1
     1  C   -0.452643
     2  C    0.023621
     3  C   -0.318768
     4  C   -0.274611
     5  O   -0.346182
     6  C   -0.192239
     7  C   -0.056970
     8  C   -0.072089
     9  C   -0.161177
    10  C   -0.510608
    11  O   -0.241865
    12  O   -0.288655
    13  C   -0.526757
    14  H    0.160959
    15  H    0.172470
    16  H    0.251420
    17  H    0.186526
    18  H    0.176641
    19  H    0.218740
    20  H    0.136363
    21  H    0.143457
    22  H    0.203203
    23  H    0.232939
    24  H    0.170009
    25  H    0.175038
    26  H    0.169131
    27  H    0.195165
    28  H    0.176406
    29  H    0.273901
    30  H    0.180155
    31  H    0.196416
 Sum of Mulliken charges =  -0.00000

 Dipole moment (field-independent basis, Debye):
    X=             -1.1680    Y=              1.0711    Z=              0.7093  Tot=              1.7363
 Quadrupole moment (field-independent basis, Debye-Ang):
   XX=            -78.6219   YY=            -80.5380   ZZ=            -80.3662
   XY=              6.7353   XZ=              4.2081   YZ=             -4.0647

  Exact polarizability: 175.246   1.870 159.929   0.640  -1.502 149.091
 Approx polarizability: 146.473   0.517 142.554  -0.723   0.654 142.973

                      1                      2                      3
                      A                      A                      A
 Frequencies --     54.0280                55.6196               101.6925
 Red. masses --      3.6705                 3.8668                 3.3986
 Frc consts  --      0.0063                 0.0070                 0.0207
 IR Inten    --      1.3613                 0.3427                 2.8347

                      4                      5                      6
                      A                      A                      A
 Frequencies --    129.3561               207.7814               233.3745
 Red. masses --      3.3341                 2.9215                 3.0362
 Frc consts  --      0.0329                 0.0743                 0.0974
 IR Inten    --      1.6276                 2.9693                 4.1920

                      7                      8                      9
                      A                      A                      A
 Frequencies --    253.8461               281.2112               327.9479
 Red. masses --      2.2276                 2.4411                 2.9247
 Frc consts  --      0.0846                 0.1137                 0.1853
 IR Inten    --      5.5771                 0.6901                12.4285

                     10                     11                     12
                      A                      A                      A
 Frequencies --    369.4721               385.1370               434.3099
 Red. masses --      2.2751                 2.2689                 3.4466
 Frc consts  --      0.1830                 0.1983                 0.3830
 IR Inten    --     12.1102                13.8980                 3.9330

                     13                     14                     15
                      A                      A                      A
 Frequencies --    440.4563               461.0208               491.3369
 Red. masses --      2.7489                 3.4786                 2.6488
 Frc consts  --      0.3142                 0.4356                 0.3768
 IR Inten    --      5.8865                 2.1563                 1.9288

                     16                     17                     18
                      A                      A                      A
 Frequencies --    538.9396               578.4481               639.3561
 Red. masses --      1.9842                 2.4845                 4.1233
 Frc consts  --      0.3396                 0.4898                 0.9931
 IR Inten    --      7.8360                11.3806                 6.9618

                     19                     20                     21
                      A                      A                      A
 Frequencies --    710.1807               820.5368               836.3268
 Red. masses --      2.8787                 2.0343                 1.5973
 Frc consts  --      0.8554                 0.8070                 0.6583
 IR Inten    --      1.7617                 1.3254                 1.6476

                     22                     23                     24
                      A                      A                      A
 Frequencies --    843.4396               876.1952               889.1741
 Red. masses --      3.3888                 1.3908                 2.3438
 Frc consts  --      1.4204                 0.6291                 1.0918
 IR Inten    --      9.7249                 9.2285                14.3005

                     25                     26                     27
                      A                      A                      A
 Frequencies --    896.0256               908.7942               928.6967
 Red. masses --      2.4184                 2.3672                 1.8029
 Frc consts  --      1.1440                 1.1519                 0.9162
 IR Inten    --     13.5846                30.1116                30.3340

                     28                     29                     30
                      A                      A                      A
 Frequencies --    949.5590               981.0489               994.6398
 Red. masses --      2.3719                 1.7512                 1.7879
 Frc consts  --      1.2600                 0.9930                 1.0422
 IR Inten    --     27.6082                69.1765                 3.0839

                     31                     32                     33
                      A                      A                      A
 Frequencies --   1009.9998              1044.0600              1055.8509
 Red. masses --      2.0341                 2.2427                 1.7360
 Frc consts  --      1.2225                 1.4403                 1.1403
 IR Inten    --     52.0058                53.6857                23.8287

                     34                     35                     36
                      A                      A                      A
 Frequencies --   1064.2815              1073.8608              1121.7646
 Red. masses --      1.5317                 2.2514                 4.7294
 Frc consts  --      1.0222                 1.5297                 3.5064
 IR Inten    --     72.9036                21.4214               308.7046

                     37                     38                     39
                      A                      A                      A
 Frequencies --   1145.7586              1152.3076              1156.9315
 Red. masses --      2.5250                 2.2658                 2.8984
 Frc consts  --      1.9530                 1.7726                 2.2857
 IR Inten    --     14.7796                21.6223               104.4228

                     40                     41                     42
                      A                      A                      A
 Frequencies --   1170.6709              1190.6350              1210.4973
 Red. masses --      4.1169                 2.3198                 1.4213
 Frc consts  --      3.3242                 1.9375                 1.2270
 IR Inten    --    205.9101                31.3329                24.1882

                     43                     44                     45
                      A                      A                      A
 Frequencies --   1216.3934              1234.1970              1253.4079
 Red. masses --      1.4953                 1.6637                 1.5193
 Frc consts  --      1.3036                 1.4931                 1.4063
 IR Inten    --     29.3993                53.5154                17.8820

                     46                     47                     48
                      A                      A                      A
 Frequencies --   1287.1478              1309.5062              1319.6064
 Red. masses --      1.2096                 1.1913                 1.1524
 Frc consts  --      1.1807                 1.2036                 1.1823
 IR Inten    --     12.3476                11.8537                10.0874

                     49                     50                     51
                      A                      A                      A
 Frequencies --   1330.7542              1347.0237              1359.8258
 Red. masses --      1.2976                 1.2650                 1.3302
 Frc consts  --      1.3539                 1.3524                 1.4492
 IR Inten    --      6.8456                11.9719                 3.5786

                     52                     53                     54
                      A                      A                      A
 Frequencies --   1362.0867              1382.9425              1385.7883
 Red. masses --      1.2693                 1.4310                 1.4646
 Frc consts  --      1.3875                 1.6125                 1.6572
 IR Inten    --     10.2746                 4.4673                 0.8338

                     55                     56                     57
                      A                      A                      A
 Frequencies --   1390.5844              1398.0388              1401.9500
 Red. masses --      1.6320                 1.3858                 1.2747
 Frc consts  --      1.8594                 1.5958                 1.4762
 IR Inten    --      3.8263                13.7107                12.4943

                     58                     59                     60
                      A                      A                      A
 Frequencies --   1412.1368              1415.8932              1428.9904
 Red. masses --      1.3908                 1.4254                 1.3875
 Frc consts  --      1.6341                 1.6837                 1.6694
 IR Inten    --     23.9872                16.1664                 4.1972

                     61                     62                     63
                      A                      A                      A
 Frequencies --   1433.8993              1475.2993              1480.5927
 Red. masses --      1.3429                 1.1048                 1.0928
 Frc consts  --      1.6267                 1.4168                 1.4115
 IR Inten    --     18.8413                 4.7879                 7.6367

                     64                     65                     66
                      A                      A                      A
 Frequencies --   1481.9254              1490.7299              1495.4736
 Red. masses --      1.0869                 1.1177                 1.1072
 Frc consts  --      1.4063                 1.4635                 1.4589
 IR Inten    --      7.8156                 9.4753                15.4165

                     67                     68                     69
                      A                      A                      A
 Frequencies --   1499.9734              1508.9717              1513.6142
 Red. masses --      1.0904                 1.0939                 1.1021
 Frc consts  --      1.4454                 1.4675                 1.4876
 IR Inten    --      0.4199                 3.9198                 9.6851

                     70                     71                     72
                      A                      A                      A
 Frequencies --   3010.2418              3018.4240              3055.3657
 Red. masses --      1.0697                 1.0707                 1.0690
 Frc consts  --      5.7110                 5.7473                 5.8796
 IR Inten    --     51.8900                80.6887                45.6908

                     73                     74                     75
                      A                      A                      A
 Frequencies --   3063.1612              3069.3657              3071.6844
 Red. masses --      1.0624                 1.0646                 1.0716
 Frc consts  --      5.8732                 5.9093                 5.9571
 IR Inten    --     48.4946                27.2804                10.3850

                     76                     77                     78
                      A                      A                      A
 Frequencies --   3073.3409              3077.4519              3081.2624
 Red. masses --      1.0645                 1.0667                 1.0712
 Frc consts  --      5.9242                 5.9521                 5.9922
 IR Inten    --     25.3250                34.9994                46.8183

                     79                     80                     81
                      A                      A                      A
 Frequencies --   3091.9375              3113.0989              3118.8299
 Red. masses --      1.0821                 1.0980                 1.1001
 Frc consts  --      6.0953                 6.2694                 6.3046
 IR Inten    --     66.3750                40.4304                43.1376

                     82                     83                     84
                      A                      A                      A
 Frequencies --   3119.6563              3129.7834              3131.3150
 Red. masses --      1.1022                 1.1019                 1.1033
 Frc consts  --      6.3202                 6.3597                 6.3740
 IR Inten    --     61.9191                48.1804                43.2797

                     85                     86                     87
                      A                      A                      A
 Frequencies --   3132.3263              3134.5195              3135.1266
 Red. masses --      1.0940                 1.0988                 1.0963
 Frc consts  --      6.3239                 6.3607                 6.3487
 IR Inten    --     49.7314                46.4503                40.1444

 - Thermochemistry -
 -------------------
 Temperature   298.150 Kelvin.  Pressure   1.00000 Atm.
 Atom     1 has atomic number  6 and mass  12.00000

 Molecular mass:   186.12559 amu.
 Principal axes and moments of inertia in atomic units:
                           1         2         3
     Eigenvalues --   901.376414182.613654680.17427
           X            0.99990   0.01263   0.00626
           Y           -0.01243   0.99944  -0.03121
           Z           -0.00665   0.03113   0.99949
 This molecule is an asymmetric top.
 Rotational symmetry number  1.
 Warning -- assumption of classical behavior for rotation
           may cause significant error
 Rotational temperatures (Kelvin)      0.09609     0.02071     0.01851
 Rotational constants (GHZ):           2.00221     0.43149     0.38561
 Zero-point vibrational energy     737247.8 (Joules/Mol)
                                  176.20646 (Kcal/Mol)
 Warning -- explicit consideration of  17 degrees of freedom as
           vibrations may cause significant error
 Vibrational temperatures:     77.73    80.02   146.31   186.11   298.95
          (Kelvin)            335.77   365.23   404.60   471.84   531.59
                              554.13   624.88   633.72   663.31   706.92
                              775.41   832.26   919.89  1021.79  1180.57
                             1203.29  1213.52  1260.65  1279.32  1289.18
                             1307.55  1336.19  1366.20  1411.51  1431.06
                             1453.16  1502.17  1519.13  1531.26  1545.05
                             1613.97  1648.49  1657.91  1664.57  1684.33
                             1713.06  1741.64  1750.12  1775.73  1803.37
                             1851.92  1884.09  1898.62  1914.66  1938.07
                             1956.49  1959.74  1989.75  1993.84  2000.74
                             2011.47  2017.09  2031.75  2037.15  2056.00
                             2063.06  2122.63  2130.24  2132.16  2144.83
                             2151.65  2158.13  2171.07  2177.75  4331.07
                             4342.84  4395.99  4407.21  4416.13  4419.47
                             4421.85  4427.77  4433.25  4448.61  4479.06
                             4487.30  4488.49  4503.06  4505.26  4506.72
                             4509.87  4510.75

 Zero-point correction=                           0.280803 (Hartree/Particle)
 Thermal correction to Energy=                    0.292492
 Thermal correction to Enthalpy=                  0.293436
 Thermal correction to Gibbs Free Energy=         0.242767
 Sum of electronic and zero-point Energies=           -617.219493
 Sum of electronic and thermal Energies=              -617.207804
 Sum of electronic and thermal Enthalpies=            -617.206859
 Sum of electronic and thermal Free Energies=         -617.257529

                     E (Thermal)             CV                S
                      KCal/Mol        Cal/Mol-Kelvin    Cal/Mol-Kelvin
 Total                  183.541             46.708            106.642
 Electronic               0.000              0.000              0.000
 Translational            0.889              2.981             41.570
 Rotational               0.889              2.981             31.246
 Vibrational            181.764             40.747             33.826
 Vibration     1          0.596              1.976              4.664
 Vibration     2          0.596              1.975              4.607
 Vibration     3          0.604              1.948              3.422
 Vibration     4          0.612              1.924              2.956
 Vibration     5          0.641              1.829              2.063
 Vibration     6          0.654              1.790              1.853
 Vibration     7          0.665              1.756              1.704
 Vibration     8          0.681              1.708              1.526
 Vibration     9          0.711              1.620              1.270
 Vibration    10          0.742              1.535              1.082
 Vibration    11          0.754              1.502              1.019
 Vibration    12          0.795              1.395              0.845
 Vibration    13          0.800              1.382              0.825
 Vibration    14          0.819              1.337              0.763
 Vibration    15          0.847              1.269              0.680
 Vibration    16          0.894              1.164              0.568
 Vibration    17          0.935              1.078              0.488

 Optimization completed.
    -- Stationary point found.
 Normal termination of Gaussian 16 at Sun Nov  4 22:51:01 2018.
