 Gaussian 16, Revision A.03,
 Gaussian 16:  ES64L-G16RevA.03 25-Dec-2016

 ----------------------------------------------------------------------
 #M062X/6-311++G(2d,2p) opt=ModRedundant freq=noraman SCRF=(Solvent=Wat
 er)
 ----------------------------------------------------------------------

 ----------------------------
 D_1a_4e_D_PSI.inp_extract_11
 ----------------------------
 Symbolic Z-matrix:
 Charge =  0 Multiplicity = 1

 SCF Done:  E(RM062X) =  -617.502390356     A.U. after   12 cycles
 SCF Done:  E(RM062X) =  -617.503984216     A.U. after   11 cycles
 SCF Done:  E(RM062X) =  -617.504073771     A.U. after    9 cycles
 SCF Done:  E(RM062X) =  -617.504081680     A.U. after    9 cycles
 SCF Done:  E(RM062X) =  -617.504083656     A.U. after    8 cycles
 Optimization completed.
    -- Stationary point found.
 Normal termination of Gaussian 16 at Sun Nov  4 21:51:33 2018.

 ----------------------------------------------------------------------
 #N Geom=AllCheck Guess=TCheck SCRF=Check GenChk RM062X/6-311++G(2d,2p)
  Freq
 ----------------------------------------------------------------------

 Structure from the checkpoint file:  "D_1a_4e_D_PSI.inp_extract_11.chk"
 ----------------------------
 D_1a_4e_D_PSI.inp_extract_11
 ----------------------------
 Charge =  0 Multiplicity = 1

                         Standard orientation:
 ---------------------------------------------------------------------
 Center     Atomic      Atomic             Coordinates (Angstroms)
 Number     Number       Type             X           Y           Z
 ---------------------------------------------------------------------
      1          6           0       -3.486467   -0.842837    0.255173
      2          6           0       -1.262331    0.767244   -0.609273
      3          6           0        1.012307    0.217854   -0.188208
      4          6           0       -3.149804    0.436443    1.018470
      5          8           0        2.776151   -1.433103    0.035462
      6          6           0        3.742979   -0.435757    0.341049
      7          6           0       -2.226046   -1.396971   -0.385875
      8          6           0        2.010011    1.337593    0.061722
      9          6           0        1.483183   -1.067320    0.479638
     10          6           0        3.411487    0.880785   -0.343016
     11          8           0       -1.610531   -0.440266   -1.250861
     12          8           0       -0.258901    0.561476    0.353409
     13          6           0       -2.453475    1.415779    0.075565
     14          1           0       -4.220877   -0.627553   -0.524728
     15          1           0       -3.914532   -1.597089    0.916031
     16          1           0        0.919997    0.030983   -1.261605
     17          1           0       -4.048639    0.890621    1.433846
     18          1           0       -2.488711    0.198267    1.854257
     19          1           0        4.700964   -0.828440    0.007293
     20          1           0        3.783986   -0.295074    1.428169
     21          1           0       -1.516106   -1.695997    0.389983
     22          1           0       -2.437143   -2.261540   -1.011021
     23          1           0        1.991244    1.575368    1.129024
     24          1           0        1.709429    2.233956   -0.481974
     25          1           0        3.461531    0.739304   -1.424781
     26          1           0        4.155554    1.630442   -0.073553
     27          1           0       -3.148291    1.729671   -0.705474
     28          1           0       -2.112642    2.308172    0.598706
     29          1           0       -0.876436    1.402355   -1.410298
     30          1           0        1.480776   -0.925073    1.568079
     31          1           0        0.815077   -1.890106    0.232509
 ---------------------------------------------------------------------

 SCF Done:  E(RM062X) =  -617.504083656     A.U. after    1 cycles

 The electronic state is 1-A.
 Alpha  occ. eigenvalues --  -19.63346 -19.63163 -19.63060 -10.63633 -10.58683
 Alpha  occ. eigenvalues --  -10.58078 -10.58063 -10.57820 -10.53285 -10.53171
 Alpha  occ. eigenvalues --  -10.53135 -10.53048 -10.52900  -1.20178  -1.16650
 Alpha  occ. eigenvalues --   -1.13489  -0.91086  -0.89828  -0.87417  -0.84441
 Alpha  occ. eigenvalues --   -0.74567  -0.74039  -0.73016  -0.71059  -0.65723
 Alpha  occ. eigenvalues --   -0.64278  -0.60020  -0.58763  -0.57430  -0.55240
 Alpha  occ. eigenvalues --   -0.54811  -0.53286  -0.52089  -0.50493  -0.50024
 Alpha  occ. eigenvalues --   -0.48019  -0.47765  -0.45978  -0.45638  -0.44345
 Alpha  occ. eigenvalues --   -0.44146  -0.42874  -0.40813  -0.40238  -0.39409
 Alpha  occ. eigenvalues --   -0.38537  -0.38115  -0.36483  -0.35378  -0.33493
 Alpha  occ. eigenvalues --   -0.31947
 Alpha virt. eigenvalues --   -0.00055   0.00767   0.00817   0.01078   0.02155
 Alpha virt. eigenvalues --    0.02472   0.02600   0.03438   0.03619   0.04339
 Alpha virt. eigenvalues --    0.04538   0.04742   0.05674   0.05757   0.07199

 Mulliken charges:
               1
     1  C   -0.372713
     2  C   -0.120824
     3  C   -0.065535
     4  C   -0.299900
     5  O   -0.321179
     6  C   -0.140569
     7  C   -0.098636
     8  C   -0.209923
     9  C   -0.392431
    10  C   -0.370867
    11  O   -0.289766
    12  O   -0.254108
    13  C   -0.389336
    14  H    0.164447
    15  H    0.170954
    16  H    0.268116
    17  H    0.185338
    18  H    0.174530
    19  H    0.208178
    20  H    0.133937
    21  H    0.105906
    22  H    0.210705
    23  H    0.207073
    24  H    0.144289
    25  H    0.161503
    26  H    0.186048
    27  H    0.189568
    28  H    0.180715
    29  H    0.236861
    30  H    0.193524
    31  H    0.204097
 Sum of Mulliken charges =  -0.00000

 Dipole moment (field-independent basis, Debye):
    X=             -0.5258    Y=              1.9762    Z=              1.0203  Tot=              2.2853
 Quadrupole moment (field-independent basis, Debye-Ang):
   XX=            -71.6064   YY=            -80.4188   ZZ=            -82.8259
   XY=              6.6454   XZ=             -0.6010   YZ=             -2.9888

  Exact polarizability: 176.321   2.760 159.293  -1.469  -0.846 149.887
 Approx polarizability: 147.252   1.575 142.329  -0.099   0.329 142.494

 ******    1 imaginary frequencies (negative Signs) ******

                      1                      2                      3
                      A                      A                      A
 Frequencies --    -32.1699                63.7492                79.6345
 Red. masses --      3.5758                 4.3924                 3.3613
 Frc consts  --      0.0022                 0.0105                 0.0126
 IR Inten    --      0.4646                 1.2619                 0.4696

                      4                      5                      6
                      A                      A                      A
 Frequencies --    134.3712               183.0899               232.2284
 Red. masses --      3.2498                 2.7793                 3.0434
 Frc consts  --      0.0346                 0.0549                 0.0967
 IR Inten    --      3.2362                 0.1491                 6.3032

                      7                      8                      9
                      A                      A                      A
 Frequencies --    248.0545               287.7950               333.2239
 Red. masses --      2.1882                 2.1660                 2.8885
 Frc consts  --      0.0793                 0.1057                 0.1890
 IR Inten    --      4.0634                 2.3291                 8.1002

                     10                     11                     12
                      A                      A                      A
 Frequencies --    373.5398               386.5138               433.9544
 Red. masses --      2.2675                 2.6209                 3.2074
 Frc consts  --      0.1864                 0.2307                 0.3559
 IR Inten    --     16.8468                17.3764                 7.7396

                     13                     14                     15
                      A                      A                      A
 Frequencies --    458.2720               462.2990               478.1457
 Red. masses --      4.3335                 3.2512                 2.2495
 Frc consts  --      0.5362                 0.4094                 0.3030
 IR Inten    --      2.5863                 1.4885                 0.4976

                     16                     17                     18
                      A                      A                      A
 Frequencies --    532.5703               577.9232               612.9562
 Red. masses --      2.2624                 2.3579                 2.8308
 Frc consts  --      0.3781                 0.4640                 0.6266
 IR Inten    --      1.5491                14.8233                 0.4672

                     19                     20                     21
                      A                      A                      A
 Frequencies --    723.8536               831.2215               834.7566
 Red. masses --      2.9548                 2.2892                 1.5760
 Frc consts  --      0.9122                 0.9319                 0.6470
 IR Inten    --      3.9168                 0.5840                 3.4433

                     22                     23                     24
                      A                      A                      A
 Frequencies --    841.8393               876.4898               893.2284
 Red. masses --      3.0245                 1.3975                 2.3675
 Frc consts  --      1.2629                 0.6325                 1.1129
 IR Inten    --     11.2346                10.3057                14.4023

                     25                     26                     27
                      A                      A                      A
 Frequencies --    898.7817               909.0265               934.2158
 Red. masses --      2.3714                 2.3973                 1.6335
 Frc consts  --      1.1287                 1.1671                 0.8400
 IR Inten    --     18.7624                26.5055                19.0146

                     28                     29                     30
                      A                      A                      A
 Frequencies --    944.4857               981.7257               994.3537
 Red. masses --      2.2570                 2.3754                 1.3789
 Frc consts  --      1.1862                 1.3488                 0.8033
 IR Inten    --     34.8947                73.4648                11.3640

                     31                     32                     33
                      A                      A                      A
 Frequencies --   1034.3892              1046.5368              1055.1062
 Red. masses --      2.2223                 2.2173                 1.8182
 Frc consts  --      1.4010                 1.4308                 1.1926
 IR Inten    --     26.6726                71.4356                63.7216

                     34                     35                     36
                      A                      A                      A
 Frequencies --   1063.3370              1073.1345              1111.5663
 Red. masses --      1.5319                 2.2124                 4.3311
 Frc consts  --      1.0205                 1.5011                 3.1530
 IR Inten    --     49.7222                35.8386               293.3051

                     37                     38                     39
                      A                      A                      A
 Frequencies --   1150.2148              1154.8537              1166.7708
 Red. masses --      2.9388                 2.4948                 2.9267
 Frc consts  --      2.2908                 1.9604                 2.3475
 IR Inten    --    102.0733                40.5320                72.5631

                     40                     41                     42
                      A                      A                      A
 Frequencies --   1172.5647              1193.4991              1210.6232
 Red. masses --      3.0209                 2.3579                 1.4128
 Frc consts  --      2.4471                 1.9789                 1.2199
 IR Inten    --    124.4645                61.9920                21.6452

                     43                     44                     45
                      A                      A                      A
 Frequencies --   1216.5456              1234.1752              1250.4425
 Red. masses --      1.5554                 1.6210                 1.5115
 Frc consts  --      1.3563                 1.4547                 1.3924
 IR Inten    --      6.5529                57.1062                35.2627

                     46                     47                     48
                      A                      A                      A
 Frequencies --   1289.3866              1304.6895              1322.1214
 Red. masses --      1.2186                 1.1998                 1.1552
 Frc consts  --      1.1937                 1.2033                 1.1897
 IR Inten    --     17.1640                25.7287                 5.7441

                     49                     50                     51
                      A                      A                      A
 Frequencies --   1329.3615              1343.5642              1356.9681
 Red. masses --      1.2985                 1.2646                 1.2668
 Frc consts  --      1.3520                 1.3450                 1.3743
 IR Inten    --      8.7957                 3.6062                21.3593

                     52                     53                     54
                      A                      A                      A
 Frequencies --   1363.1000              1381.5128              1386.2077
 Red. masses --      1.2751                 1.4263                 1.4674
 Frc consts  --      1.3959                 1.6039                 1.6613
 IR Inten    --      5.2137                 7.0928                 0.7248

                     55                     56                     57
                      A                      A                      A
 Frequencies --   1391.0941              1394.1819              1402.2369
 Red. masses --      1.5390                 1.6819                 1.2504
 Frc consts  --      1.7547                 1.9262                 1.4486
 IR Inten    --     13.5393                13.4006                14.9115

                     58                     59                     60
                      A                      A                      A
 Frequencies --   1407.0426              1420.1059              1433.2842
 Red. masses --      1.4108                 1.3888                 1.3862
 Frc consts  --      1.6456                 1.6501                 1.6778
 IR Inten    --     18.3465                11.3652                19.4246

                     61                     62                     63
                      A                      A                      A
 Frequencies --   1446.3426              1476.0042              1481.8595
 Red. masses --      1.3892                 1.1072                 1.0916
 Frc consts  --      1.7122                 1.4212                 1.4123
 IR Inten    --      0.7443                 5.0193                 6.9910

                     64                     65                     66
                      A                      A                      A
 Frequencies --   1482.1559              1494.3345              1494.7024
 Red. masses --      1.0867                 1.1133                 1.1119
 Frc consts  --      1.4066                 1.4648                 1.4637
 IR Inten    --      9.1380                 9.2002                16.4906

                     67                     68                     69
                      A                      A                      A
 Frequencies --   1500.9515              1510.5256              1513.4881
 Red. masses --      1.0880                 1.0937                 1.1014
 Frc consts  --      1.4441                 1.4703                 1.4865
 IR Inten    --      1.1574                 3.5262                 8.1856

                     70                     71                     72
                      A                      A                      A
 Frequencies --   3016.5065              3021.1175              3055.3896
 Red. masses --      1.0692                 1.0704                 1.0671
 Frc consts  --      5.7323                 5.7562                 5.8693
 IR Inten    --     46.5079                89.6334                 9.1168

                     73                     74                     75
                      A                      A                      A
 Frequencies --   3058.1400              3065.0002              3065.7917
 Red. masses --      1.0684                 1.0638                 1.0784
 Frc consts  --      5.8868                 5.8880                 5.9722
 IR Inten    --     45.1985                50.8591                12.7371

                     76                     77                     78
                      A                      A                      A
 Frequencies --   3069.8638              3070.7683              3072.4365
 Red. masses --      1.0631                 1.0678                 1.0738
 Frc consts  --      5.9030                 5.9327                 5.9725
 IR Inten    --     13.0908                86.6109                16.8665

                     79                     80                     81
                      A                      A                      A
 Frequencies --   3082.6282              3109.7714              3114.5188
 Red. masses --      1.0686                 1.1002                 1.0977
 Frc consts  --      5.9828                 6.2686                 6.2736
 IR Inten    --     70.5781                46.9892                36.8065

                     82                     83                     84
                      A                      A                      A
 Frequencies --   3119.4828              3119.5497              3131.6059
 Red. masses --      1.1027                 1.1022                 1.1030
 Frc consts  --      6.3222                 6.3198                 6.3730
 IR Inten    --     62.3151                57.8717                38.9635

                     85                     86                     87
                      A                      A                      A
 Frequencies --   3132.1518              3134.2519              3136.9042
 Red. masses --      1.0943                 1.0960                 1.0987
 Frc consts  --      6.3254                 6.3433                 6.3702
 IR Inten    --     56.4078                66.3343                 8.4791

 - Thermochemistry -
 -------------------
 Temperature   298.150 Kelvin.  Pressure   1.00000 Atm.
 Atom     1 has atomic number  6 and mass  12.00000

 Molecular mass:   186.12559 amu.
 Principal axes and moments of inertia in atomic units:
                           1         2         3
     Eigenvalues --   945.510874307.404844731.64794
           X            0.99994   0.01010  -0.00465
           Y           -0.01020   0.99973  -0.02097
           Z            0.00443   0.02102   0.99977
 This molecule is an asymmetric top.
 Rotational symmetry number  1.
 Warning -- assumption of classical behavior for rotation
           may cause significant error
 Rotational temperatures (Kelvin)      0.09161     0.02011     0.01831
 Rotational constants (GHZ):           1.90875     0.41899     0.38142
    1 imaginary frequencies ignored.
 Zero-point vibrational energy     736763.0 (Joules/Mol)
                                  176.09059 (Kcal/Mol)
 Warning -- explicit consideration of  17 degrees of freedom as
           vibrations may cause significant error
 Vibrational temperatures:     91.72   114.58   193.33   263.43   334.12
          (Kelvin)            356.90   414.07   479.43   537.44   556.11
                              624.36   659.35   665.15   687.95   766.25
                              831.50   881.91  1041.46  1195.94  1201.03
                             1211.22  1261.07  1285.16  1293.15  1307.89
                             1344.13  1358.90  1412.48  1430.65  1488.26
                             1505.73  1518.06  1529.90  1544.00  1599.30
                             1654.90  1661.58  1678.72  1687.06  1717.18
                             1741.82  1750.34  1775.70  1799.11  1855.14
                             1877.16  1902.24  1912.65  1933.09  1952.37
                             1961.20  1987.69  1994.44  2001.47  2005.92
                             2017.51  2024.42  2043.22  2062.18  2080.96
                             2123.64  2132.07  2132.49  2150.01  2150.54
                             2159.53  2173.31  2177.57  4340.08  4346.71
                             4396.02  4399.98  4409.85  4410.99  4416.85
                             4418.15  4420.55  4435.21  4474.27  4481.10
                             4488.24  4488.34  4505.68  4506.47  4509.49
                             4513.31

 Zero-point correction=                           0.280618 (Hartree/Particle)
 Thermal correction to Energy=                    0.291526
 Thermal correction to Enthalpy=                  0.292470
 Thermal correction to Gibbs Free Energy=         0.243819
 Sum of electronic and zero-point Energies=           -617.223465
 Sum of electronic and thermal Energies=              -617.212558
 Sum of electronic and thermal Enthalpies=            -617.211614
 Sum of electronic and thermal Free Energies=         -617.260265

                     E (Thermal)             CV                S
                      KCal/Mol        Cal/Mol-Kelvin    Cal/Mol-Kelvin
 Total                  182.935             44.726            102.395
 Electronic               0.000              0.000              0.000
 Translational            0.889              2.981             41.570
 Rotational               0.889              2.981             31.333
 Vibrational            181.158             38.764             29.492
 Vibration     1          0.597              1.972              4.338
 Vibration     2          0.600              1.963              3.900
 Vibration     3          0.613              1.919              2.883
 Vibration     4          0.631              1.863              2.297
 Vibration     5          0.653              1.792              1.862
 Vibration     6          0.662              1.766              1.744
 Vibration     7          0.685              1.696              1.487
 Vibration     8          0.715              1.609              1.244
 Vibration     9          0.745              1.526              1.065
 Vibration    10          0.755              1.499              1.014
 Vibration    11          0.795              1.396              0.846
 Vibration    12          0.816              1.343              0.771
 Vibration    13          0.820              1.334              0.759
 Vibration    14          0.835              1.299              0.715
 Vibration    15          0.888              1.178              0.581
 Vibration    16          0.934              1.079              0.489
 Vibration    17          0.972              1.004              0.428

 Optimization completed.
    -- Stationary point found.
 Normal termination of Gaussian 16 at Sun Nov  4 22:43:55 2018.
