 Gaussian 16, Revision A.03,
 Gaussian 16:  ES64L-G16RevA.03 25-Dec-2016

 ----------------------------------------------------------------------
 #M062X/6-311++G(2d,2p) opt=ModRedundant freq=noraman SCRF=(Solvent=Wat
 er)
 ----------------------------------------------------------------------

 ----------------------------
 D_1a_4e_D_PSI.inp_extract_18
 ----------------------------
 Symbolic Z-matrix:
 Charge =  0 Multiplicity = 1

 SCF Done:  E(RM062X) =  -617.496416743     A.U. after   12 cycles
 SCF Done:  E(RM062X) =  -617.498040112     A.U. after   11 cycles
 SCF Done:  E(RM062X) =  -617.498483637     A.U. after   10 cycles
 SCF Done:  E(RM062X) =  -617.498750826     A.U. after   10 cycles
 SCF Done:  E(RM062X) =  -617.498774700     A.U. after    9 cycles
 SCF Done:  E(RM062X) =  -617.498776373     A.U. after    8 cycles
 SCF Done:  E(RM062X) =  -617.498776982     A.U. after    7 cycles
 Optimization completed.
    -- Stationary point found.
 Normal termination of Gaussian 16 at Sun Nov  4 22:00:55 2018.

 ----------------------------------------------------------------------
 #N Geom=AllCheck Guess=TCheck SCRF=Check GenChk RM062X/6-311++G(2d,2p)
  Freq
 ----------------------------------------------------------------------

 Structure from the checkpoint file:  "D_1a_4e_D_PSI.inp_extract_18.chk"
 ----------------------------
 D_1a_4e_D_PSI.inp_extract_18
 ----------------------------
 Charge =  0 Multiplicity = 1

                         Standard orientation:
 ---------------------------------------------------------------------
 Center     Atomic      Atomic             Coordinates (Angstroms)
 Number     Number       Type             X           Y           Z
 ---------------------------------------------------------------------
      1          6           0       -3.173662   -0.275849    1.151314
      2          6           0       -1.254179   -0.195901   -0.993213
      3          6           0        1.045855    0.544884   -0.597201
      4          6           0       -3.179365    0.906668    0.183858
      5          8           0        2.870146   -1.014837   -0.636247
      6          6           0        3.496527   -0.444448    0.505626
      7          6           0       -1.779664   -0.876230    1.221972
      8          6           0        1.650866    1.233578    0.617732
      9          6           0        1.457073   -0.932247   -0.553423
     10          6           0        3.165984    1.033834    0.630009
     11          8           0       -1.311813   -1.261250   -0.071474
     12          8           0       -0.357421    0.807660   -0.592373
     13          6           0       -2.615139    0.462755   -1.164960
     14          1           0       -3.872548   -1.040809    0.804338
     15          1           0       -3.485843    0.029726    2.150375
     16          1           0        1.468289    0.969447   -1.514185
     17          1           0       -4.188128    1.298215    0.057277
     18          1           0       -2.565367    1.712919    0.589656
     19          1           0        4.565207   -0.605889    0.381845
     20          1           0        3.164855   -0.981820    1.402319
     21          1           0       -1.080255   -0.159260    1.661409
     22          1           0       -1.762742   -1.784059    1.820793
     23          1           0        1.204550    0.793944    1.513802
     24          1           0        1.396121    2.293637    0.607030
     25          1           0        3.615847    1.569769   -0.208257
     26          1           0        3.600826    1.431348    1.547146
     27          1           0       -3.280688   -0.273758   -1.618688
     28          1           0       -2.518506    1.298744   -1.856203
     29          1           0       -0.925067   -0.653926   -1.927967
     30          1           0        1.108657   -1.395615    0.373822
     31          1           0        1.061721   -1.497464   -1.394048
 ---------------------------------------------------------------------

 SCF Done:  E(RM062X) =  -617.498776982     A.U. after    1 cycles

 The electronic state is 1-A.
 Alpha  occ. eigenvalues --  -19.63182 -19.63109 -19.62932 -10.63615 -10.58917
 Alpha  occ. eigenvalues --  -10.58058 -10.58022 -10.57799 -10.53247 -10.53196
 Alpha  occ. eigenvalues --  -10.53043 -10.52970 -10.52875  -1.19945  -1.16588
 Alpha  occ. eigenvalues --   -1.13362  -0.91110  -0.89755  -0.87033  -0.84684
 Alpha  occ. eigenvalues --   -0.75004  -0.74045  -0.72662  -0.70696  -0.66490
 Alpha  occ. eigenvalues --   -0.63264  -0.60269  -0.58677  -0.57096  -0.56072
 Alpha  occ. eigenvalues --   -0.53460  -0.53369  -0.52011  -0.51020  -0.49589
 Alpha  occ. eigenvalues --   -0.48748  -0.46952  -0.45727  -0.45398  -0.44998
 Alpha  occ. eigenvalues --   -0.43964  -0.42593  -0.41097  -0.40060  -0.39877
 Alpha  occ. eigenvalues --   -0.38421  -0.37901  -0.36462  -0.34119  -0.33321
 Alpha  occ. eigenvalues --   -0.32241
 Alpha virt. eigenvalues --   -0.00061   0.00769   0.00832   0.01036   0.02189
 Alpha virt. eigenvalues --    0.02526   0.02685   0.03339   0.03465   0.04457
 Alpha virt. eigenvalues --    0.04842   0.04905   0.05768   0.05838   0.07201

 Mulliken charges:
               1
     1  C   -0.404039
     2  C   -0.022149
     3  C   -0.240517
     4  C   -0.294843
     5  O   -0.362908
     6  C   -0.181959
     7  C   -0.089105
     8  C   -0.076489
     9  C   -0.272813
    10  C   -0.353478
    11  O   -0.249418
    12  O   -0.303669
    13  C   -0.540639
    14  H    0.164013
    15  H    0.172143
    16  H    0.240798
    17  H    0.184968
    18  H    0.175531
    19  H    0.209274
    20  H    0.136783
    21  H    0.116238
    22  H    0.206839
    23  H    0.183969
    24  H    0.173362
    25  H    0.171585
    26  H    0.171013
    27  H    0.199887
    28  H    0.184483
    29  H    0.248426
    30  H    0.222165
    31  H    0.230549
 Sum of Mulliken charges =  -0.00000

 Dipole moment (field-independent basis, Debye):
    X=             -0.9572    Y=              1.3932    Z=              1.7593  Tot=              2.4398
 Quadrupole moment (field-independent basis, Debye-Ang):
   XX=            -75.9449   YY=            -85.0534   ZZ=            -76.4818
   XY=              3.8581   XZ=              4.5831   YZ=             -1.6134

  Exact polarizability: 175.020   1.152 153.350   1.388  -0.687 156.947
 Approx polarizability: 147.073   1.838 141.385  -0.254   0.267 144.407

 ******    1 imaginary frequencies (negative Signs) ******

                      1                      2                      3
                      A                      A                      A
 Frequencies --    -35.0327                60.8550               112.5586
 Red. masses --      3.4534                 4.0157                 3.5162
 Frc consts  --      0.0025                 0.0088                 0.0262
 IR Inten    --      1.3762                 0.7411                 2.2435

                      4                      5                      6
                      A                      A                      A
 Frequencies --    148.4982               180.6789               227.1698
 Red. masses --      3.1395                 3.2963                 3.0071
 Frc consts  --      0.0408                 0.0634                 0.0914
 IR Inten    --      1.5163                 3.3183                 5.4482

                      7                      8                      9
                      A                      A                      A
 Frequencies --    255.8289               294.3038               345.1868
 Red. masses --      1.9625                 2.7645                 3.1767
 Frc consts  --      0.0757                 0.1411                 0.2230
 IR Inten    --      2.8751                 2.3315                15.8074

                     10                     11                     12
                      A                      A                      A
 Frequencies --    358.0982               382.1808               438.3105
 Red. masses --      2.0735                 2.6154                 3.6555
 Frc consts  --      0.1567                 0.2251                 0.4138
 IR Inten    --      1.5292                19.5033                 8.6971

                     13                     14                     15
                      A                      A                      A
 Frequencies --    444.8027               464.3306               483.8410
 Red. masses --      3.0563                 3.4121                 2.2827
 Frc consts  --      0.3563                 0.4334                 0.3148
 IR Inten    --      2.8476                 0.9943                 1.5198

                     16                     17                     18
                      A                      A                      A
 Frequencies --    539.0852               569.6936               636.1430
 Red. masses --      2.0814                 2.0495                 4.5763
 Frc consts  --      0.3564                 0.3919                 1.0911
 IR Inten    --      2.9368                10.6473                 9.0459

                     19                     20                     21
                      A                      A                      A
 Frequencies --    708.2881               827.0446               835.2911
 Red. masses --      2.6874                 1.9621                 1.8188
 Frc consts  --      0.7943                 0.7907                 0.7477
 IR Inten    --      0.7109                 0.3256                 0.3751

                     22                     23                     24
                      A                      A                      A
 Frequencies --    841.5508               876.3311               890.0627
 Red. masses --      2.9076                 1.3924                 2.3295
 Frc consts  --      1.2133                 0.6300                 1.0873
 IR Inten    --      9.7729                 9.2039                12.3777

                     25                     26                     27
                      A                      A                      A
 Frequencies --    898.1397               911.8554               927.7240
 Red. masses --      2.5520                 2.4438                 1.7937
 Frc consts  --      1.2129                 1.1972                 0.9096
 IR Inten    --     31.6044                 9.1271                25.0969

                     28                     29                     30
                      A                      A                      A
 Frequencies --    942.8422               983.7314               996.7016
 Red. masses --      2.0767                 1.5121                 2.2249
 Frc consts  --      1.0877                 0.8622                 1.3023
 IR Inten    --     35.4893                23.3635                29.6346

                     31                     32                     33
                      A                      A                      A
 Frequencies --   1013.4638              1041.6643              1053.4276
 Red. masses --      2.1161                 2.2657                 1.7162
 Frc consts  --      1.2806                 1.4485                 1.1221
 IR Inten    --     53.2911                68.3988                38.5242

                     34                     35                     36
                      A                      A                      A
 Frequencies --   1063.6391              1072.4558              1117.0203
 Red. masses --      1.5460                 2.2017                 4.3251
 Frc consts  --      1.0305                 1.4920                 3.1796
 IR Inten    --     56.6192                18.3550               267.4568

                     37                     38                     39
                      A                      A                      A
 Frequencies --   1135.8764              1149.6622              1170.4784
 Red. masses --      2.6746                 2.8802                 2.4109
 Frc consts  --      2.0331                 2.2430                 1.9461
 IR Inten    --     41.1850               147.8762                44.1392

                     40                     41                     42
                      A                      A                      A
 Frequencies --   1178.5158              1186.6082              1209.7641
 Red. masses --      3.7440                 2.5883                 1.4119
 Frc consts  --      3.0638                 2.1472                 1.2174
 IR Inten    --    174.1820                64.9712                13.1839

                     43                     44                     45
                      A                      A                      A
 Frequencies --   1216.4134              1233.8768              1250.7783
 Red. masses --      1.5298                 1.6453                 1.4871
 Frc consts  --      1.3336                 1.4759                 1.3707
 IR Inten    --     18.5681                49.7821                 7.6977

                     46                     47                     48
                      A                      A                      A
 Frequencies --   1288.5307              1305.0744              1319.8272
 Red. masses --      1.2173                 1.1557                 1.1557
 Frc consts  --      1.1908                 1.1597                 1.1861
 IR Inten    --     14.8392                 5.1186                 9.8485

                     49                     50                     51
                      A                      A                      A
 Frequencies --   1331.5549              1342.3969              1354.8668
 Red. masses --      1.3084                 1.2176                 1.2496
 Frc consts  --      1.3668                 1.2928                 1.3514
 IR Inten    --     17.4957                 4.3611                 9.2860

                     52                     53                     54
                      A                      A                      A
 Frequencies --   1364.7050              1382.6315              1385.3305
 Red. masses --      1.3018                 1.4325                 1.4642
 Frc consts  --      1.4285                 1.6134                 1.6556
 IR Inten    --      1.5944                12.3157                 5.4290

                     55                     56                     57
                      A                      A                      A
 Frequencies --   1389.8820              1395.9012              1402.7599
 Red. masses --      1.6098                 1.2786                 1.4994
 Frc consts  --      1.8323                 1.4679                 1.7384
 IR Inten    --      9.7655                22.4327                 6.1794

                     58                     59                     60
                      A                      A                      A
 Frequencies --   1410.3059              1419.8447              1427.9422
 Red. masses --      1.3624                 1.4646                 1.3825
 Frc consts  --      1.5965                 1.7396                 1.6609
 IR Inten    --      6.0188                13.0520                15.5421

                     61                     62                     63
                      A                      A                      A
 Frequencies --   1436.7348              1476.2101              1480.2138
 Red. masses --      1.3564                 1.1045                 1.0920
 Frc consts  --      1.6496                 1.4182                 1.4097
 IR Inten    --     12.3192                 4.6066                 7.0353

                     64                     65                     66
                      A                      A                      A
 Frequencies --   1482.9866              1492.5148              1496.7141
 Red. masses --      1.0862                 1.1029                 1.1071
 Frc consts  --      1.4075                 1.4475                 1.4612
 IR Inten    --      8.3002                 9.7853                13.5567

                     67                     68                     69
                      A                      A                      A
 Frequencies --   1499.5525              1509.9847              1512.6958
 Red. masses --      1.0922                 1.0933                 1.1016
 Frc consts  --      1.4470                 1.4687                 1.4852
 IR Inten    --      1.2676                 3.5793                 8.9391

                     70                     71                     72
                      A                      A                      A
 Frequencies --   3021.7537              3035.6547              3054.7048
 Red. masses --      1.0704                 1.0824                 1.0674
 Frc consts  --      5.7583                 5.8767                 5.8683
 IR Inten    --     72.2724                32.8442                39.2104

                     73                     74                     75
                      A                      A                      A
 Frequencies --   3057.9636              3062.9696              3064.0315
 Red. masses --      1.0662                 1.0653                 1.0627
 Frc consts  --      5.8745                 5.8885                 5.8780
 IR Inten    --     22.3078                94.6302                50.8097

                     76                     77                     78
                      A                      A                      A
 Frequencies --   3071.3451              3072.2273              3074.8104
 Red. masses --      1.0621                 1.0675                 1.0700
 Frc consts  --      5.9029                 5.9362                 5.9603
 IR Inten    --     35.7308                33.5139                 6.7604

                     79                     80                     81
                      A                      A                      A
 Frequencies --   3084.3967              3113.5540              3114.0880
 Red. masses --      1.0741                 1.0994                 1.0978
 Frc consts  --      6.0204                 6.2792                 6.2722
 IR Inten    --     75.6025                42.2334                40.6551

                     82                     83                     84
                      A                      A                      A
 Frequencies --   3119.9383              3121.1218              3132.2261
 Red. masses --      1.1024                 1.1025                 1.1030
 Frc consts  --      6.3224                 6.3277                 6.3755
 IR Inten    --     65.3521                54.5471                40.4736

                     85                     86                     87
                      A                      A                      A
 Frequencies --   3132.8068              3136.2475              3146.4850
 Red. masses --      1.0951                 1.0986                 1.0993
 Frc consts  --      6.3325                 6.3669                 6.4125
 IR Inten    --     49.0107                40.3952                42.7495

 - Thermochemistry -
 -------------------
 Temperature   298.150 Kelvin.  Pressure   1.00000 Atm.
 Atom     1 has atomic number  6 and mass  12.00000

 Molecular mass:   186.12559 amu.
 Principal axes and moments of inertia in atomic units:
                           1         2         3
     Eigenvalues --   996.449004100.284734182.14692
           X            0.99998   0.00362   0.00512
           Y           -0.00343   0.99932  -0.03682
           Z           -0.00525   0.03680   0.99931
 This molecule is an asymmetric top.
 Rotational symmetry number  1.
 Warning -- assumption of classical behavior for rotation
           may cause significant error
 Rotational temperatures (Kelvin)      0.08692     0.02112     0.02071
 Rotational constants (GHZ):           1.81117     0.44015     0.43153
    1 imaginary frequencies ignored.
 Zero-point vibrational energy     736901.2 (Joules/Mol)
                                  176.12361 (Kcal/Mol)
 Warning -- explicit consideration of  16 degrees of freedom as
           vibrations may cause significant error
 Vibrational temperatures:     87.56   161.95   213.66   259.96   326.85
          (Kelvin)            368.08   423.44   496.65   515.22   549.87
                              630.63   639.97   668.07   696.14   775.62
                              819.66   915.27  1019.07  1189.93  1201.80
                             1210.80  1260.85  1280.60  1292.22  1311.96
                             1334.79  1356.54  1415.37  1434.03  1458.15
                             1498.72  1515.65  1530.34  1543.02  1607.14
                             1634.27  1654.11  1684.06  1695.62  1707.26
                             1740.58  1750.15  1775.27  1799.59  1853.91
                             1877.71  1898.94  1915.81  1931.41  1949.35
                             1963.51  1989.30  1993.18  1999.73  2008.39
                             2018.26  2029.12  2042.84  2054.49  2067.14
                             2123.94  2129.70  2133.69  2147.40  2153.44
                             2157.52  2172.53  2176.43  4347.63  4367.63
                             4395.04  4399.73  4406.93  4408.46  4418.98
                             4420.25  4423.97  4437.76  4479.71  4480.48
                             4488.90  4490.60  4506.57  4507.41  4512.36
                             4527.09

 Zero-point correction=                           0.280671 (Hartree/Particle)
 Thermal correction to Energy=                    0.291498
 Thermal correction to Enthalpy=                  0.292443
 Thermal correction to Gibbs Free Energy=         0.244214
 Sum of electronic and zero-point Energies=           -617.218106
 Sum of electronic and thermal Energies=              -617.207279
 Sum of electronic and thermal Enthalpies=            -617.206334
 Sum of electronic and thermal Free Energies=         -617.254563

                     E (Thermal)             CV                S
                      KCal/Mol        Cal/Mol-Kelvin    Cal/Mol-Kelvin
 Total                  182.918             44.735            101.505
 Electronic               0.000              0.000              0.000
 Translational            0.889              2.981             41.570
 Rotational               0.889              2.981             31.214
 Vibrational            181.141             38.773             28.722
 Vibration     1          0.597              1.973              4.429
 Vibration     2          0.607              1.939              3.224
 Vibration     3          0.618              1.904              2.691
 Vibration     4          0.630              1.866              2.321
 Vibration     5          0.651              1.800              1.901
 Vibration     6          0.666              1.753              1.690
 Vibration     7          0.689              1.684              1.449
 Vibration     8          0.724              1.585              1.188
 Vibration     9          0.733              1.559              1.130
 Vibration    10          0.752              1.508              1.031
 Vibration    11          0.798              1.387              0.832
 Vibration    12          0.804              1.372              0.812
 Vibration    13          0.822              1.329              0.754
 Vibration    14          0.840              1.286              0.700
 Vibration    15          0.894              1.164              0.567
 Vibration    16          0.926              1.097              0.505

 Optimization completed.
    -- Stationary point found.
 Normal termination of Gaussian 16 at Sun Nov  4 22:57:04 2018.
