 Gaussian 16, Revision A.03,
 Gaussian 16:  ES64L-G16RevA.03 25-Dec-2016

 ----------------------------------------------------------------------
 #M062X/6-311++G(2d,2p) opt=ModRedundant freq=noraman SCRF=(Solvent=Wat
 er)
 ----------------------------------------------------------------------

 ---------------------------
 D_1a_4e_D_PSI.inp_extract_3
 ---------------------------
 Symbolic Z-matrix:
 Charge =  0 Multiplicity = 1

 SCF Done:  E(RM062X) =  -617.496083809     A.U. after   12 cycles
 SCF Done:  E(RM062X) =  -617.497658567     A.U. after   11 cycles
 SCF Done:  E(RM062X) =  -617.497924674     A.U. after   10 cycles
 SCF Done:  E(RM062X) =  -617.498105846     A.U. after   10 cycles
 SCF Done:  E(RM062X) =  -617.498119636     A.U. after    9 cycles
 SCF Done:  E(RM062X) =  -617.498121812     A.U. after    8 cycles
 SCF Done:  E(RM062X) =  -617.498122104     A.U. after    8 cycles
 SCF Done:  E(RM062X) =  -617.498122142     A.U. after    6 cycles
 Optimization completed.
    -- Stationary point found.
 Normal termination of Gaussian 16 at Sun Nov  4 22:04:12 2018.

 ----------------------------------------------------------------------
 #N Geom=AllCheck Guess=TCheck SCRF=Check GenChk RM062X/6-311++G(2d,2p)
  Freq
 ----------------------------------------------------------------------

 Structure from the checkpoint file:  "D_1a_4e_D_PSI.inp_extract_3.chk"
 ---------------------------
 D_1a_4e_D_PSI.inp_extract_3
 ---------------------------
 Charge =  0 Multiplicity = 1

                         Standard orientation:
 ---------------------------------------------------------------------
 Center     Atomic      Atomic             Coordinates (Angstroms)
 Number     Number       Type             X           Y           Z
 ---------------------------------------------------------------------
      1          6           0       -3.599152    0.427842   -0.526528
      2          6           0       -1.102106   -0.160074    0.780685
      3          6           0        1.011856   -0.152855   -0.471284
      4          6           0       -3.208335   -1.028279   -0.278770
      5          8           0        3.297739   -0.988048   -0.557396
      6          6           0        3.770228    0.087976    0.242537
      7          6           0       -2.349385    1.285917   -0.630510
      8          6           0        1.454718    1.038788    0.370496
      9          6           0        1.961904   -1.324842   -0.239899
     10          6           0        2.921853    1.332887    0.045543
     11          8           0       -1.533697    1.161521    0.534716
     12          8           0       -0.310674   -0.655231   -0.267035
     13          6           0       -2.283104   -1.107714    0.934614
     14          1           0       -4.211487    0.792337    0.301929
     15          1           0       -4.184504    0.529107   -1.440966
     16          1           0        1.071154    0.134265   -1.525249
     17          1           0       -4.092240   -1.644423   -0.117127
     18          1           0       -2.693384   -1.421514   -1.157241
     19          1           0        4.803096    0.258494   -0.053191
     20          1           0        3.755466   -0.213497    1.297217
     21          1           0       -1.766577    1.003145   -1.511939
     22          1           0       -2.594347    2.343100   -0.704866
     23          1           0        1.373768    0.799344    1.433253
     24          1           0        0.828268    1.905705    0.175860
     25          1           0        3.015273    1.665778   -0.990406
     26          1           0        3.296429    2.133320    0.683648
     27          1           0       -2.826526   -0.809909    1.833209
     28          1           0       -1.907328   -2.118278    1.088890
     29          1           0       -0.532118   -0.099544    1.707245
     30          1           0        1.885772   -1.637801    0.810333
     31          1           0        1.681471   -2.163440   -0.874190
 ---------------------------------------------------------------------

 SCF Done:  E(RM062X) =  -617.498122142     A.U. after    1 cycles

 The electronic state is 1-A.
 Alpha  occ. eigenvalues --  -19.63141 -19.63131 -19.62712 -10.63488 -10.58909
 Alpha  occ. eigenvalues --  -10.58060 -10.57948 -10.57669 -10.53359 -10.53301
 Alpha  occ. eigenvalues --  -10.52989 -10.52918 -10.52802  -1.19781  -1.16670
 Alpha  occ. eigenvalues --   -1.13205  -0.91029  -0.89625  -0.87445  -0.84473
 Alpha  occ. eigenvalues --   -0.75101  -0.74023  -0.72621  -0.70842  -0.66435
 Alpha  occ. eigenvalues --   -0.62848  -0.60165  -0.58804  -0.56382  -0.55901
 Alpha  occ. eigenvalues --   -0.54152  -0.53422  -0.52417  -0.50769  -0.49562
 Alpha  occ. eigenvalues --   -0.48511  -0.46488  -0.46256  -0.45352  -0.45044
 Alpha  occ. eigenvalues --   -0.43747  -0.43303  -0.41009  -0.40187  -0.39087
 Alpha  occ. eigenvalues --   -0.38440  -0.37590  -0.35963  -0.35252  -0.33440
 Alpha  occ. eigenvalues --   -0.31613
 Alpha virt. eigenvalues --   -0.00069   0.00723   0.00791   0.01090   0.02152
 Alpha virt. eigenvalues --    0.02475   0.02655   0.03388   0.03618   0.04435
 Alpha virt. eigenvalues --    0.04581   0.04889   0.05612   0.05866   0.06973

 Mulliken charges:
               1
     1  C   -0.456444
     2  C    0.042953
     3  C   -0.154794
     4  C   -0.270680
     5  O   -0.348853
     6  C   -0.189268
     7  C   -0.064210
     8  C   -0.100289
     9  C   -0.211582
    10  C   -0.485562
    11  O   -0.273174
    12  O   -0.295696
    13  C   -0.597065
    14  H    0.160374
    15  H    0.173819
    16  H    0.253496
    17  H    0.183115
    18  H    0.180408
    19  H    0.209392
    20  H    0.138831
    21  H    0.141640
    22  H    0.205929
    23  H    0.223541
    24  H    0.184754
    25  H    0.172202
    26  H    0.168898
    27  H    0.193919
    28  H    0.179999
    29  H    0.257456
    30  H    0.182030
    31  H    0.194860
 Sum of Mulliken charges =  -0.00000

 Dipole moment (field-independent basis, Debye):
    X=             -1.0134    Y=              0.9840    Z=              1.0506  Tot=              1.7604
 Quadrupole moment (field-independent basis, Debye-Ang):
   XX=            -77.9616   YY=            -82.0020   ZZ=            -79.2418
   XY=              6.8599   XZ=              6.0758   YZ=             -4.1902

  Exact polarizability: 175.200   2.750 158.540   0.933  -2.101 151.439
 Approx polarizability: 146.254   1.100 142.344  -0.559   0.308 143.628

 ******    1 imaginary frequencies (negative Signs) ******

                      1                      2                      3
                      A                      A                      A
 Frequencies --    -70.4631                54.3732               101.1505
 Red. masses --      3.6094                 4.0528                 3.7106
 Frc consts  --      0.0106                 0.0071                 0.0224
 IR Inten    --      0.4820                 1.5540                 4.0988

                      4                      5                      6
                      A                      A                      A
 Frequencies --    132.4686               214.4469               219.6331
 Red. masses --      2.9487                 2.8414                 3.3900
 Frc consts  --      0.0305                 0.0770                 0.0963
 IR Inten    --      0.2355                 6.5327                 1.0189

                      7                      8                      9
                      A                      A                      A
 Frequencies --    247.6618               260.7158               333.3745
 Red. masses --      2.0724                 2.9791                 2.7593
 Frc consts  --      0.0749                 0.1193                 0.1807
 IR Inten    --      6.0240                 1.9252                13.3165

                     10                     11                     12
                      A                      A                      A
 Frequencies --    366.4251               380.9055               433.5195
 Red. masses --      2.2203                 2.1656                 2.9750
 Frc consts  --      0.1756                 0.1851                 0.3294
 IR Inten    --      6.8633                15.3765                 1.8478

                     13                     14                     15
                      A                      A                      A
 Frequencies --    441.3568               459.5552               485.7874
 Red. masses --      3.1998                 3.2485                 2.6572
 Frc consts  --      0.3672                 0.4042                 0.3695
 IR Inten    --      8.5483                 2.1279                 2.3720

                     16                     17                     18
                      A                      A                      A
 Frequencies --    536.1643               578.6231               638.0348
 Red. masses --      2.0089                 2.4781                 4.0816
 Frc consts  --      0.3402                 0.4888                 0.9790
 IR Inten    --      7.2318                13.3861                 6.9735

                     19                     20                     21
                      A                      A                      A
 Frequencies --    713.3452               821.9583               836.8206
 Red. masses --      2.8929                 2.0370                 1.5874
 Frc consts  --      0.8673                 0.8109                 0.6549
 IR Inten    --      3.1433                 1.8502                 1.9493

                     22                     23                     24
                      A                      A                      A
 Frequencies --    841.5704               877.1552               888.9638
 Red. masses --      3.5020                 1.3987                 2.3622
 Frc consts  --      1.4613                 0.6341                 1.0999
 IR Inten    --     12.1602                10.2234                13.7335

                     25                     26                     27
                      A                      A                      A
 Frequencies --    895.2542               911.0282               927.8499
 Red. masses --      2.5028                 2.3783                 1.7795
 Frc consts  --      1.1819                 1.1630                 0.9026
 IR Inten    --     12.0889                26.7224                28.2162

                     28                     29                     30
                      A                      A                      A
 Frequencies --    949.8329               980.4536               993.6790
 Red. masses --      2.2743                 1.9154                 1.7075
 Frc consts  --      1.2089                 1.0848                 0.9933
 IR Inten    --     25.9662                46.2129                10.1266

                     31                     32                     33
                      A                      A                      A
 Frequencies --   1015.0034              1043.2197              1058.0809
 Red. masses --      2.0671                 2.2657                 1.7353
 Frc consts  --      1.2547                 1.4528                 1.1446
 IR Inten    --     56.5790                54.7649                20.0726

                     34                     35                     36
                      A                      A                      A
 Frequencies --   1063.4527              1071.8498              1117.5683
 Red. masses --      1.5679                 2.1920                 4.3812
 Frc consts  --      1.0447                 1.4838                 3.2240
 IR Inten    --     75.8820                23.1111               286.6077

                     37                     38                     39
                      A                      A                      A
 Frequencies --   1144.8753              1155.1657              1159.2726
 Red. masses --      2.3592                 3.0667                 2.2914
 Frc consts  --      1.8219                 2.4110                 1.8143
 IR Inten    --      8.8781               128.2368                21.0332

                     40                     41                     42
                      A                      A                      A
 Frequencies --   1179.1541              1188.8865              1211.7304
 Red. masses --      4.0024                 2.3230                 1.4108
 Frc consts  --      3.2788                 1.9346                 1.2205
 IR Inten    --    253.3307                23.4562                21.1172

                     43                     44                     45
                      A                      A                      A
 Frequencies --   1217.0718              1233.9474              1253.9698
 Red. masses --      1.5381                 1.6378                 1.5212
 Frc consts  --      1.3424                 1.4693                 1.4094
 IR Inten    --     53.7983                42.3090                19.2497

                     46                     47                     48
                      A                      A                      A
 Frequencies --   1288.4836              1306.1852              1319.7826
 Red. masses --      1.2133                 1.1967                 1.1518
 Frc consts  --      1.1868                 1.2029                 1.1820
 IR Inten    --     15.7214                19.5338                 8.9098

                     49                     50                     51
                      A                      A                      A
 Frequencies --   1329.8258              1348.5146              1356.9876
 Red. masses --      1.2621                 1.2780                 1.2466
 Frc consts  --      1.3150                 1.3693                 1.3525
 IR Inten    --     10.3682                13.6052                 0.7252

                     52                     53                     54
                      A                      A                      A
 Frequencies --   1363.2553              1384.8803              1385.2527
 Red. masses --      1.3231                 1.4359                 1.4374
 Frc consts  --      1.4488                 1.6225                 1.6252
 IR Inten    --      6.9033                 1.3461                 3.5233

                     55                     56                     57
                      A                      A                      A
 Frequencies --   1391.1701              1396.4263              1401.9499
 Red. masses --      1.6361                 1.2714                 1.4328
 Frc consts  --      1.8656                 1.4607                 1.6593
 IR Inten    --      5.2244                19.7411                 8.1581

                     58                     59                     60
                      A                      A                      A
 Frequencies --   1414.8194              1417.9845              1427.2344
 Red. masses --      1.3860                 1.3900                 1.4194
 Frc consts  --      1.6347                 1.6466                 1.7035
 IR Inten    --      2.4326                25.9194                 1.8775

                     61                     62                     63
                      A                      A                      A
 Frequencies --   1433.1820              1477.1742              1481.7788
 Red. masses --      1.3667                 1.1037                 1.0946
 Frc consts  --      1.6540                 1.4190                 1.4161
 IR Inten    --     24.6749                 4.4452                 9.4292

                     64                     65                     66
                      A                      A                      A
 Frequencies --   1483.0556              1495.5778              1495.7431
 Red. masses --      1.0850                 1.1039                 1.1083
 Frc consts  --      1.4060                 1.4548                 1.4609
 IR Inten    --      7.5643                11.0612                12.2043

                     67                     68                     69
                      A                      A                      A
 Frequencies --   1500.0111              1509.9481              1513.0828
 Red. masses --      1.0918                 1.0933                 1.1018
 Frc consts  --      1.4473                 1.4686                 1.4862
 IR Inten    --      1.3183                 3.8239                 7.7156

                     70                     71                     72
                      A                      A                      A
 Frequencies --   3007.4535              3019.1165              3049.7796
 Red. masses --      1.0698                 1.0707                 1.0811
 Frc consts  --      5.7009                 5.7503                 5.9245
 IR Inten    --     50.5185                81.5457                85.3671

                     73                     74                     75
                      A                      A                      A
 Frequencies --   3052.9431              3061.8031              3067.9267
 Red. masses --      1.0711                 1.0627                 1.0662
 Frc consts  --      5.8817                 5.8698                 5.9125
 IR Inten    --     14.4221                42.9018                 8.9194

                     76                     77                     78
                      A                      A                      A
 Frequencies --   3073.2039              3074.1407              3078.4617
 Red. masses --      1.0644                 1.0638                 1.0625
 Frc consts  --      5.9232                 5.9231                 5.9326
 IR Inten    --     55.8497                48.8760                 9.7053

                     79                     80                     81
                      A                      A                      A
 Frequencies --   3108.8359              3112.7738              3119.2480
 Red. masses --      1.0853                 1.0972                 1.1023
 Frc consts  --      6.1802                 6.2637                 6.3188
 IR Inten    --     75.5438                21.7792                53.8255

                     82                     83                     84
                      A                      A                      A
 Frequencies --   3119.6669              3130.9604              3132.0784
 Red. masses --      1.1004                 1.1033                 1.0940
 Frc consts  --      6.3096                 6.3721                 6.3230
 IR Inten    --     68.7017                41.4424                45.3976

                     85                     86                     87
                      A                      A                      A
 Frequencies --   3134.4128              3134.9857              3147.1362
 Red. masses --      1.0982                 1.0947                 1.0985
 Frc consts  --      6.3570                 6.3387                 6.4101
 IR Inten    --     53.2186                33.0690                28.6363

 - Thermochemistry -
 -------------------
 Temperature   298.150 Kelvin.  Pressure   1.00000 Atm.
 Atom     1 has atomic number  6 and mass  12.00000

 Molecular mass:   186.12559 amu.
 Principal axes and moments of inertia in atomic units:
                           1         2         3
     Eigenvalues --   900.227914313.245794742.69043
           X            0.99989   0.01287   0.00797
           Y           -0.01258   0.99928  -0.03584
           Z           -0.00843   0.03573   0.99933
 This molecule is an asymmetric top.
 Rotational symmetry number  1.
 Warning -- assumption of classical behavior for rotation
           may cause significant error
 Rotational temperatures (Kelvin)      0.09621     0.02008     0.01826
 Rotational constants (GHZ):           2.00476     0.41842     0.38053
    1 imaginary frequencies ignored.
 Zero-point vibrational energy     736795.5 (Joules/Mol)
                                  176.09835 (Kcal/Mol)
 Warning -- explicit consideration of  16 degrees of freedom as
           vibrations may cause significant error
 Vibrational temperatures:     78.23   145.53   190.59   308.54   316.00
          (Kelvin)            356.33   375.11   479.65   527.20   548.04
                              623.74   635.01   661.20   698.94   771.42
                              832.51   917.99  1026.34  1182.61  1204.00
                             1210.83  1262.03  1279.02  1288.07  1310.77
                             1334.97  1366.60  1410.65  1429.68  1460.36
                             1500.96  1522.34  1530.07  1542.15  1607.93
                             1647.22  1662.03  1667.93  1696.54  1710.54
                             1743.41  1751.09  1775.38  1804.18  1853.84
                             1879.31  1898.87  1913.32  1940.21  1952.40
                             1961.42  1992.53  1993.07  2001.58  2009.15
                             2017.09  2035.61  2040.16  2053.47  2062.03
                             2125.32  2131.95  2133.79  2151.80  2152.04
                             2158.18  2172.48  2176.99  4327.05  4343.84
                             4387.95  4392.50  4405.25  4414.06  4421.65
                             4423.00  4429.22  4472.92  4478.59  4487.90
                             4488.50  4504.75  4506.36  4509.72  4510.55
                             4528.03

 Zero-point correction=                           0.280631 (Hartree/Particle)
 Thermal correction to Energy=                    0.291544
 Thermal correction to Enthalpy=                  0.292488
 Thermal correction to Gibbs Free Energy=         0.243893
 Sum of electronic and zero-point Energies=           -617.217492
 Sum of electronic and thermal Energies=              -617.206578
 Sum of electronic and thermal Enthalpies=            -617.205634
 Sum of electronic and thermal Free Energies=         -617.254229

                     E (Thermal)             CV                S
                      KCal/Mol        Cal/Mol-Kelvin    Cal/Mol-Kelvin
 Total                  182.946             44.798            102.277
 Electronic               0.000              0.000              0.000
 Translational            0.889              2.981             41.570
 Rotational               0.889              2.981             31.288
 Vibrational            181.169             38.836             29.419
 Vibration     1          0.596              1.976              4.652
 Vibration     2          0.604              1.948              3.432
 Vibration     3          0.613              1.921              2.910
 Vibration     4          0.644              1.819              2.005
 Vibration     5          0.647              1.811              1.962
 Vibration     6          0.661              1.767              1.747
 Vibration     7          0.669              1.745              1.657
 Vibration     8          0.715              1.609              1.244
 Vibration     9          0.739              1.541              1.095
 Vibration    10          0.751              1.511              1.036
 Vibration    11          0.794              1.397              0.847
 Vibration    12          0.801              1.380              0.822
 Vibration    13          0.817              1.340              0.767
 Vibration    14          0.842              1.282              0.695
 Vibration    15          0.891              1.170              0.574
 Vibration    16          0.935              1.078              0.488

 Optimization completed.
    -- Stationary point found.
 Normal termination of Gaussian 16 at Sun Nov  4 22:58:04 2018.
