 Gaussian 16, Revision A.03,
 Gaussian 16:  ES64L-G16RevA.03 25-Dec-2016

 ----------------------------------------------------------------------
 #M062X/6-311++G(2d,2p) opt=ModRedundant freq=noraman SCRF=(Solvent=Wat
 er)
 ----------------------------------------------------------------------

 ----------------------------
 D_1a_4e_D_PSI.inp_extract_22
 ----------------------------
 Symbolic Z-matrix:
 Charge =  0 Multiplicity = 1

 SCF Done:  E(RM062X) =  -617.497053893     A.U. after   13 cycles
 SCF Done:  E(RM062X) =  -617.499206319     A.U. after   11 cycles
 SCF Done:  E(RM062X) =  -617.499645584     A.U. after   10 cycles
 SCF Done:  E(RM062X) =  -617.499791252     A.U. after   10 cycles
 SCF Done:  E(RM062X) =  -617.499823056     A.U. after   10 cycles
 SCF Done:  E(RM062X) =  -617.499833926     A.U. after    9 cycles
 SCF Done:  E(RM062X) =  -617.499834735     A.U. after    8 cycles
 Optimization completed.
    -- Stationary point found.
 Normal termination of Gaussian 16 at Sun Nov  4 22:02:27 2018.

 ----------------------------------------------------------------------
 #N Geom=AllCheck Guess=TCheck SCRF=Check GenChk RM062X/6-311++G(2d,2p)
  Freq
 ----------------------------------------------------------------------

 Structure from the checkpoint file:  "D_1a_4e_D_PSI.inp_extract_22.chk"
 ----------------------------
 D_1a_4e_D_PSI.inp_extract_22
 ----------------------------
 Charge =  0 Multiplicity = 1

                         Standard orientation:
 ---------------------------------------------------------------------
 Center     Atomic      Atomic             Coordinates (Angstroms)
 Number     Number       Type             X           Y           Z
 ---------------------------------------------------------------------
      1          6           0        3.300313    1.009010   -0.149257
      2          6           0        1.103586   -0.841968   -0.383081
      3          6           0       -1.029099   -0.398322    0.712355
      4          6           0        3.292372   -0.252058    0.712362
      5          8           0       -3.155986   -0.998426   -0.249157
      6          6           0       -3.506525    0.361299   -0.479677
      7          6           0        1.871591    1.410143   -0.471789
      8          6           0       -1.332148    1.084584    0.523420
      9          6           0       -1.758932   -1.202539   -0.363066
     10          6           0       -2.850141    1.279827    0.538399
     11          8           0        1.162857    0.354793   -1.124722
     12          8           0        0.359953   -0.710785    0.805158
     13          6           0        2.488352   -1.339738    0.003742
     14          1           0        3.839689    0.819570   -1.080401
     15          1           0        3.797941    1.834076    0.361163
     16          1           0       -1.437379   -0.711870    1.675648
     17          1           0        4.306914   -0.600388    0.902710
     18          1           0        2.837119   -0.029010    1.679343
     19          1           0       -4.591605    0.409827   -0.420004
     20          1           0       -3.200817    0.643579   -1.494520
     21          1           0        1.346377    1.687550    0.445675
     22          1           0        1.833119    2.253919   -1.157392
     23          1           0       -0.923842    1.419994   -0.430683
     24          1           0       -0.859923    1.664026    1.317237
     25          1           0       -3.246153    1.048515    1.529644
     26          1           0       -3.107413    2.315227    0.314084
     27          1           0        2.997756   -1.630616   -0.916858
     28          1           0        2.380130   -2.230184    0.621302
     29          1           0        0.622564   -1.554167   -1.053931
     30          1           0       -1.427944   -0.896484   -1.362663
     31          1           0       -1.577330   -2.269642   -0.241037
 ---------------------------------------------------------------------

 SCF Done:  E(RM062X) =  -617.499834735     A.U. after    1 cycles

 The electronic state is 1-A.
 Alpha  occ. eigenvalues --  -19.63302 -19.63233 -19.63054 -10.63583 -10.58885
 Alpha  occ. eigenvalues --  -10.58274 -10.58076 -10.57786 -10.53225 -10.53062
 Alpha  occ. eigenvalues --  -10.52992 -10.52907 -10.52886  -1.19910  -1.16703
 Alpha  occ. eigenvalues --   -1.13410  -0.91031  -0.89734  -0.87131  -0.84765
 Alpha  occ. eigenvalues --   -0.75048  -0.74227  -0.72951  -0.70649  -0.67023
 Alpha  occ. eigenvalues --   -0.62514  -0.60208  -0.59047  -0.56751  -0.55698
 Alpha  occ. eigenvalues --   -0.54403  -0.53136  -0.51818  -0.50304  -0.49789
 Alpha  occ. eigenvalues --   -0.49344  -0.47089  -0.46099  -0.45646  -0.45029
 Alpha  occ. eigenvalues --   -0.44321  -0.42200  -0.40567  -0.40178  -0.39957
 Alpha  occ. eigenvalues --   -0.38462  -0.37815  -0.36712  -0.35004  -0.33261
 Alpha  occ. eigenvalues --   -0.31711
 Alpha virt. eigenvalues --   -0.00094   0.00747   0.00881   0.00988   0.02244
 Alpha virt. eigenvalues --    0.02543   0.02685   0.03357   0.03488   0.04403
 Alpha virt. eigenvalues --    0.04948   0.04971   0.05624   0.05892   0.07223

 Mulliken charges:
               1
     1  C   -0.435546
     2  C   -0.157274
     3  C    0.010467
     4  C   -0.285760
     5  O   -0.350918
     6  C   -0.163602
     7  C   -0.083498
     8  C   -0.334857
     9  C   -0.289616
    10  C   -0.434879
    11  O   -0.259506
    12  O   -0.306510
    13  C   -0.423750
    14  H    0.166554
    15  H    0.174094
    16  H    0.261219
    17  H    0.188063
    18  H    0.175884
    19  H    0.217488
    20  H    0.129409
    21  H    0.147387
    22  H    0.210615
    23  H    0.250382
    24  H    0.191391
    25  H    0.176174
    26  H    0.164985
    27  H    0.194762
    28  H    0.188129
    29  H    0.240677
    30  H    0.231167
    31  H    0.206867
 Sum of Mulliken charges =  -0.00000

 Dipole moment (field-independent basis, Debye):
    X=              1.4666    Y=              1.8229    Z=              0.0479  Tot=              2.3402
 Quadrupole moment (field-independent basis, Debye-Ang):
   XX=            -78.4355   YY=            -77.2923   ZZ=            -83.0136
   XY=             -6.0798   XZ=              0.0726   YZ=              1.6604

  Exact polarizability: 174.238  -2.405 160.804  -0.392   0.344 148.398
 Approx polarizability: 146.233  -0.590 143.995  -1.564  -0.623 141.651

                      1                      2                      3
                      A                      A                      A
 Frequencies --     34.2792                99.9467               106.2577
 Red. masses --      3.8045                 3.7156                 3.1957
 Frc consts  --      0.0026                 0.0219                 0.0213
 IR Inten    --      0.7809                 0.6671                 2.1451

                      4                      5                      6
                      A                      A                      A
 Frequencies --    155.1487               174.5157               232.4751
 Red. masses --      3.3662                 3.0867                 3.4274
 Frc consts  --      0.0477                 0.0554                 0.1091
 IR Inten    --      3.1966                 2.1591                 6.4393

                      7                      8                      9
                      A                      A                      A
 Frequencies --    260.8587               300.1015               336.3397
 Red. masses --      1.9754                 2.1411                 2.9358
 Frc consts  --      0.0792                 0.1136                 0.1957
 IR Inten    --      4.0550                 2.5417                 7.2751

                     10                     11                     12
                      A                      A                      A
 Frequencies --    371.0954               378.5190               433.1540
 Red. masses --      2.4076                 2.9987                 3.2446
 Frc consts  --      0.1953                 0.2531                 0.3587
 IR Inten    --     11.3110                20.8765                 9.5664

                     13                     14                     15
                      A                      A                      A
 Frequencies --    436.9819               466.2229               479.8945
 Red. masses --      2.9114                 3.1785                 2.8744
 Frc consts  --      0.3275                 0.4071                 0.3900
 IR Inten    --      2.8138                 0.3487                 1.0593

                     16                     17                     18
                      A                      A                      A
 Frequencies --    539.0535               571.1209               658.0970
 Red. masses --      2.0644                 2.0947                 4.7128
 Frc consts  --      0.3534                 0.4026                 1.2026
 IR Inten    --      6.5131                 7.1828                 7.2496

                     19                     20                     21
                      A                      A                      A
 Frequencies --    703.6029               818.6542               834.8109
 Red. masses --      2.7669                 2.0254                 1.6625
 Frc consts  --      0.8070                 0.7997                 0.6827
 IR Inten    --      0.5430                 1.1545                 0.7201

                     22                     23                     24
                      A                      A                      A
 Frequencies --    841.7956               883.0669               888.6710
 Red. masses --      3.2252                 1.3804                 2.4850
 Frc consts  --      1.3465                 0.6342                 1.1563
 IR Inten    --      9.5220                13.0832                11.6703

                     25                     26                     27
                      A                      A                      A
 Frequencies --    895.2004               910.6962               927.6056
 Red. masses --      2.3208                 2.3561                 1.8127
 Frc consts  --      1.0958                 1.1513                 0.9190
 IR Inten    --     16.1325                23.3195                34.2013

                     28                     29                     30
                      A                      A                      A
 Frequencies --    946.0328               977.0332               999.1262
 Red. masses --      2.3331                 1.6293                 1.8482
 Frc consts  --      1.2303                 0.9164                 1.0870
 IR Inten    --     44.0039                36.3510                 8.0308

                     31                     32                     33
                      A                      A                      A
 Frequencies --   1011.8185              1044.3290              1052.9841
 Red. masses --      2.1429                 2.2659                 1.7568
 Frc consts  --      1.2926                 1.4560                 1.1477
 IR Inten    --     56.1521                75.5476                19.2186

                     34                     35                     36
                      A                      A                      A
 Frequencies --   1063.7466              1073.8135              1118.1316
 Red. masses --      1.5767                 2.1175                 4.1614
 Frc consts  --      1.0512                 1.4386                 3.0653
 IR Inten    --     62.5443                23.1900               228.8751

                     37                     38                     39
                      A                      A                      A
 Frequencies --   1141.6535              1151.4108              1161.6754
 Red. masses --      2.7044                 2.5787                 2.7133
 Frc consts  --      2.0768                 2.0142                 2.1574
 IR Inten    --     57.9081                84.2760                85.6412

                     40                     41                     42
                      A                      A                      A
 Frequencies --   1177.3752              1195.5032              1211.0006
 Red. masses --      3.6253                 2.4590                 1.4425
 Frc consts  --      2.9609                 2.0707                 1.2464
 IR Inten    --    121.0694                74.2210                37.4883

                     43                     44                     45
                      A                      A                      A
 Frequencies --   1214.6983              1234.9992              1248.1102
 Red. masses --      1.4360                 1.6472                 1.5476
 Frc consts  --      1.2483                 1.4802                 1.4204
 IR Inten    --     14.6498                57.5887                 7.7880

                     46                     47                     48
                      A                      A                      A
 Frequencies --   1289.2259              1306.5925              1322.9371
 Red. masses --      1.2156                 1.1612                 1.1570
 Frc consts  --      1.1904                 1.1680                 1.1930
 IR Inten    --     15.0373                10.0415                11.3917

                     49                     50                     51
                      A                      A                      A
 Frequencies --   1337.0710              1343.6346              1361.9896
 Red. masses --      1.3402                 1.2623                 1.3743
 Frc consts  --      1.4117                 1.3427                 1.5020
 IR Inten    --      8.3788                13.0058                 4.2236

                     52                     53                     54
                      A                      A                      A
 Frequencies --   1367.3883              1383.6727              1386.4090
 Red. masses --      1.3141                 1.4194                 1.4672
 Frc consts  --      1.4476                 1.6011                 1.6615
 IR Inten    --     22.7696                 1.9092                 0.6273

                     55                     56                     57
                      A                      A                      A
 Frequencies --   1394.3419              1398.9755              1404.4824
 Red. masses --      1.6873                 1.3556                 1.2446
 Frc consts  --      1.9328                 1.5631                 1.4464
 IR Inten    --      6.9611                18.8134                 4.6709

                     58                     59                     60
                      A                      A                      A
 Frequencies --   1415.3199              1421.3548              1431.7141
 Red. masses --      1.3597                 1.3571                 1.3305
 Frc consts  --      1.6048                 1.6154                 1.6068
 IR Inten    --      9.7362                14.1756                 6.3220

                     61                     62                     63
                      A                      A                      A
 Frequencies --   1438.8033              1475.5899              1482.0878
 Red. masses --      1.3840                 1.1039                 1.0932
 Frc consts  --      1.6881                 1.4162                 1.4149
 IR Inten    --     18.7770                 5.1721                10.4854

                     64                     65                     66
                      A                      A                      A
 Frequencies --   1482.5889              1495.4401              1500.5441
 Red. masses --      1.0870                 1.1091                 1.1062
 Frc consts  --      1.4078                 1.4614                 1.4675
 IR Inten    --      6.9224                13.2413                 5.3776

                     67                     68                     69
                      A                      A                      A
 Frequencies --   1504.0271              1510.1914              1518.9350
 Red. masses --      1.0842                 1.0932                 1.0985
 Frc consts  --      1.4450                 1.4689                 1.4932
 IR Inten    --      2.2635                 3.7837                 7.9214

                     70                     71                     72
                      A                      A                      A
 Frequencies --   3021.5473              3026.0818              3061.7710
 Red. masses --      1.0702                 1.0676                 1.0666
 Frc consts  --      5.7569                 5.7599                 5.8911
 IR Inten    --     59.7473                55.8709                27.2610

                     73                     74                     75
                      A                      A                      A
 Frequencies --   3067.9313              3069.0251              3072.0038
 Red. masses --      1.0628                 1.0626                 1.0792
 Frc consts  --      5.8939                 5.8966                 6.0007
 IR Inten    --     51.8257                25.9709                38.8028

                     76                     77                     78
                      A                      A                      A
 Frequencies --   3072.8751              3077.4926              3079.0085
 Red. masses --      1.0637                 1.0628                 1.0643
 Frc consts  --      5.9180                 5.9305                 5.9447
 IR Inten    --     31.6668                18.7724                47.2095

                     79                     80                     81
                      A                      A                      A
 Frequencies --   3101.5506              3114.7228              3116.3004
 Red. masses --      1.0850                 1.0978                 1.1006
 Frc consts  --      6.1494                 6.2752                 6.2973
 IR Inten    --     82.5967                30.5706                43.1592

                     82                     83                     84
                      A                      A                      A
 Frequencies --   3120.4497              3123.5564              3128.7627
 Red. masses --      1.1023                 1.0978                 1.1043
 Frc consts  --      6.3237                 6.3106                 6.3694
 IR Inten    --     67.5241                22.7954                51.7211

                     85                     86                     87
                      A                      A                      A
 Frequencies --   3132.4335              3134.7829              3135.0760
 Red. masses --      1.1020                 1.0958                 1.1011
 Frc consts  --      6.3708                 6.3443                 6.3766
 IR Inten    --     36.0788                56.2857                35.7140

 - Thermochemistry -
 -------------------
 Temperature   298.150 Kelvin.  Pressure   1.00000 Atm.
 Atom     1 has atomic number  6 and mass  12.00000

 Molecular mass:   186.12559 amu.
 Principal axes and moments of inertia in atomic units:
                           1         2         3
     Eigenvalues --   958.315823955.524894342.60975
           X            0.99994  -0.01025   0.00231
           Y            0.01020   0.99970   0.02216
           Z           -0.00253  -0.02213   0.99975
 This molecule is an asymmetric top.
 Rotational symmetry number  1.
 Warning -- assumption of classical behavior for rotation
           may cause significant error
 Rotational temperatures (Kelvin)      0.09038     0.02190     0.01995
 Rotational constants (GHZ):           1.88324     0.45626     0.41559
 Zero-point vibrational energy     738037.9 (Joules/Mol)
                                  176.39528 (Kcal/Mol)
 Warning -- explicit consideration of  17 degrees of freedom as
           vibrations may cause significant error
 Vibrational temperatures:     49.32   143.80   152.88   223.22   251.09
          (Kelvin)            334.48   375.32   431.78   483.92   533.92
                              544.60   623.21   628.72   670.79   690.46
                              775.58   821.72   946.85  1012.33  1177.86
                             1201.11  1211.16  1270.54  1278.60  1287.99
                             1310.29  1334.62  1361.13  1405.73  1437.52
                             1455.78  1502.56  1515.01  1530.49  1544.98
                             1608.74  1642.58  1656.62  1671.39  1693.98
                             1720.06  1742.36  1747.68  1776.89  1795.75
                             1854.91  1879.90  1903.41  1923.75  1933.19
                             1959.60  1967.37  1990.80  1994.73  2006.15
                             2012.81  2020.74  2036.33  2045.01  2059.92
                             2070.12  2123.04  2132.39  2133.11  2151.60
                             2158.95  2163.96  2172.83  2185.41  4347.33
                             4353.86  4405.21  4414.07  4415.64  4419.93
                             4421.18  4427.83  4430.01  4462.44  4481.39
                             4483.66  4489.63  4494.10  4501.59  4506.87
                             4510.25  4510.68

 Zero-point correction=                           0.281104 (Hartree/Particle)
 Thermal correction to Energy=                    0.292713
 Thermal correction to Enthalpy=                  0.293658
 Thermal correction to Gibbs Free Energy=         0.243264
 Sum of electronic and zero-point Energies=           -617.218731
 Sum of electronic and thermal Energies=              -617.207121
 Sum of electronic and thermal Enthalpies=            -617.206177
 Sum of electronic and thermal Free Energies=         -617.256571

                     E (Thermal)             CV                S
                      KCal/Mol        Cal/Mol-Kelvin    Cal/Mol-Kelvin
 Total                  183.680             46.648            106.062
 Electronic               0.000              0.000              0.000
 Translational            0.889              2.981             41.570
 Rotational               0.889              2.981             31.177
 Vibrational            181.903             40.687             33.315
 Vibration     1          0.594              1.983              5.565
 Vibration     2          0.604              1.949              3.455
 Vibration     3          0.605              1.944              3.336
 Vibration     4          0.620              1.897              2.608
 Vibration     5          0.627              1.874              2.386
 Vibration     6          0.653              1.791              1.860
 Vibration     7          0.669              1.744              1.656
 Vibration     8          0.693              1.673              1.416
 Vibration     9          0.717              1.603              1.229
 Vibration    10          0.743              1.532              1.075
 Vibration    11          0.749              1.516              1.045
 Vibration    12          0.794              1.398              0.848
 Vibration    13          0.797              1.390              0.836
 Vibration    14          0.824              1.325              0.748
 Vibration    15          0.836              1.295              0.710
 Vibration    16          0.894              1.164              0.567
 Vibration    17          0.927              1.094              0.502

 Optimization completed.
    -- Stationary point found.
 Normal termination of Gaussian 16 at Sun Nov  4 22:56:09 2018.
