 Gaussian 16, Revision A.03,
 Gaussian 16:  ES64L-G16RevA.03 25-Dec-2016

 ----------------------------------------------------------------------
 #M062X/6-311++G(2d,2p) opt=ModRedundant freq=noraman SCRF=(Solvent=Wat
 er)
 ----------------------------------------------------------------------

 ----------------------------
 D_1a_4e_D_PSI.inp_extract_15
 ----------------------------
 Symbolic Z-matrix:
 Charge =  0 Multiplicity = 1

 SCF Done:  E(RM062X) =  -617.501961829     A.U. after   12 cycles
 SCF Done:  E(RM062X) =  -617.503768327     A.U. after   11 cycles
 SCF Done:  E(RM062X) =  -617.503982981     A.U. after   10 cycles
 SCF Done:  E(RM062X) =  -617.504050495     A.U. after    9 cycles
 SCF Done:  E(RM062X) =  -617.504054986     A.U. after    8 cycles
 SCF Done:  E(RM062X) =  -617.504055503     A.U. after    8 cycles
 SCF Done:  E(RM062X) =  -617.504055582     A.U. after    6 cycles
 Optimization completed.
    -- Stationary point found.
 Normal termination of Gaussian 16 at Sun Nov  4 21:59:16 2018.

 ----------------------------------------------------------------------
 #N Geom=AllCheck Guess=TCheck SCRF=Check GenChk RM062X/6-311++G(2d,2p)
  Freq
 ----------------------------------------------------------------------

 Structure from the checkpoint file:  "D_1a_4e_D_PSI.inp_extract_15.chk"
 ----------------------------
 D_1a_4e_D_PSI.inp_extract_15
 ----------------------------
 Charge =  0 Multiplicity = 1

                         Standard orientation:
 ---------------------------------------------------------------------
 Center     Atomic      Atomic             Coordinates (Angstroms)
 Number     Number       Type             X           Y           Z
 ---------------------------------------------------------------------
      1          6           0        3.395363   -0.574978   -0.816242
      2          6           0        1.251312    0.243450    0.924130
      3          6           0       -1.068441    0.494143    0.384725
      4          6           0        3.163848    0.912975   -0.558800
      5          8           0       -2.784204   -1.213969    0.517107
      6          6           0       -3.612901   -0.543131   -0.421939
      7          6           0        2.089364   -1.332452   -0.646644
      8          6           0       -1.938041    1.296224   -0.568506
      9          6           0       -1.406677   -0.993395    0.270612
     10          6           0       -3.411694    0.961085   -0.349036
     11          8           0        1.522168   -1.114548    0.646118
     12          8           0        0.284751    0.770661    0.050821
     13          6           0        2.507033    1.093441    0.808877
     14          1           0        4.128073   -0.963802   -0.104927
     15          1           0        3.784054   -0.746672   -1.820437
     16          1           0       -1.257924    0.814330    1.416678
     17          1           0        4.101969    1.465249   -0.600543
     18          1           0        2.511678    1.319715   -1.334418
     19          1           0       -4.636395   -0.821675   -0.180185
     20          1           0       -3.382470   -0.906109   -1.431167
     21          1           0        1.371848   -1.024599   -1.412386
     22          1           0        2.234871   -2.407567   -0.724317
     23          1           0       -1.647658    1.035212   -1.590208
     24          1           0       -1.747381    2.360509   -0.432227
     25          1           0       -3.734435    1.313823    0.632762
     26          1           0       -4.033319    1.452769   -1.097309
     27          1           0        3.195231    0.771726    1.592698
     28          1           0        2.246113    2.133889    0.997141
     29          1           0        0.862979    0.246914    1.945675
     30          1           0       -1.134973   -1.344137   -0.733818
     31          1           0       -0.858982   -1.580898    1.001546
 ---------------------------------------------------------------------

 SCF Done:  E(RM062X) =  -617.504055582     A.U. after    1 cycles

 The electronic state is 1-A.
 Alpha  occ. eigenvalues --  -19.63470 -19.63068 -19.62862 -10.63576 -10.58885
 Alpha  occ. eigenvalues --  -10.58002 -10.57787 -10.57739 -10.53278 -10.53239
 Alpha  occ. eigenvalues --  -10.53075 -10.53014 -10.52861  -1.20106  -1.16519
 Alpha  occ. eigenvalues --   -1.13585  -0.91103  -0.89805  -0.87096  -0.84516
 Alpha  occ. eigenvalues --   -0.74665  -0.74044  -0.72770  -0.71085  -0.65915
 Alpha  occ. eigenvalues --   -0.63886  -0.60132  -0.58649  -0.57063  -0.56087
 Alpha  occ. eigenvalues --   -0.53675  -0.53410  -0.52529  -0.50944  -0.49672
 Alpha  occ. eigenvalues --   -0.48243  -0.46891  -0.45830  -0.45101  -0.44849
 Alpha  occ. eigenvalues --   -0.43798  -0.43370  -0.40655  -0.40209  -0.39467
 Alpha  occ. eigenvalues --   -0.38376  -0.37818  -0.36318  -0.35888  -0.33068
 Alpha  occ. eigenvalues --   -0.31972
 Alpha virt. eigenvalues --   -0.00036   0.00745   0.00783   0.01099   0.02181
 Alpha virt. eigenvalues --    0.02480   0.02646   0.03354   0.03535   0.04434
 Alpha virt. eigenvalues --    0.04660   0.04708   0.05527   0.06147   0.07131

 Mulliken charges:
               1
     1  C   -0.434188
     2  C    0.011804
     3  C   -0.191787
     4  C   -0.282258
     5  O   -0.352424
     6  C   -0.151954
     7  C   -0.078778
     8  C   -0.193292
     9  C   -0.318442
    10  C   -0.364493
    11  O   -0.282766
    12  O   -0.276915
    13  C   -0.466258
    14  H    0.163941
    15  H    0.172445
    16  H    0.238009
    17  H    0.183259
    18  H    0.170191
    19  H    0.206518
    20  H    0.128917
    21  H    0.135106
    22  H    0.205883
    23  H    0.200847
    24  H    0.174293
    25  H    0.165913
    26  H    0.181709
    27  H    0.190078
    28  H    0.186389
    29  H    0.237034
    30  H    0.216922
    31  H    0.224298
 Sum of Mulliken charges =  -0.00000

 Dipole moment (field-independent basis, Debye):
    X=              0.6658    Y=              1.8960    Z=             -1.4837  Tot=              2.4979
 Quadrupole moment (field-independent basis, Debye-Ang):
   XX=            -73.4936   YY=            -83.4919   ZZ=            -78.8257
   XY=             -4.3499   XZ=              3.1037   YZ=              5.0851

  Exact polarizability: 175.806  -1.951 156.832  -0.216   2.403 153.211
 Approx polarizability: 147.053  -1.944 141.054  -0.468  -0.019 144.248

                      1                      2                      3
                      A                      A                      A
 Frequencies --     24.6419                55.6053                99.6020
 Red. masses --      3.4823                 3.7399                 3.7167
 Frc consts  --      0.0012                 0.0068                 0.0217
 IR Inten    --      0.2306                 0.6197                 1.4284

                      4                      5                      6
                      A                      A                      A
 Frequencies --    137.1375               199.6542               233.9141
 Red. masses --      3.0890                 3.0347                 2.5416
 Frc consts  --      0.0342                 0.0713                 0.0819
 IR Inten    --      2.5237                 0.8028                 7.0067

                      7                      8                      9
                      A                      A                      A
 Frequencies --    247.1219               276.2344               332.6826
 Red. masses --      2.4257                 2.8556                 3.0141
 Frc consts  --      0.0873                 0.1284                 0.1965
 IR Inten    --      4.2664                 0.3710                20.8785

                     10                     11                     12
                      A                      A                      A
 Frequencies --    363.6717               383.7559               440.7380
 Red. masses --      1.9783                 2.3814                 3.1790
 Frc consts  --      0.1542                 0.2066                 0.3638
 IR Inten    --      3.9265                17.8077                 6.0315

                     13                     14                     15
                      A                      A                      A
 Frequencies --    447.1567               463.0386               483.4148
 Red. masses --      3.8785                 3.4766                 2.1242
 Frc consts  --      0.4569                 0.4392                 0.2925
 IR Inten    --      3.4972                 0.4835                 0.9940

                     16                     17                     18
                      A                      A                      A
 Frequencies --    532.1592               574.7675               619.5548
 Red. masses --      2.1788                 2.1895                 4.0201
 Frc consts  --      0.3635                 0.4262                 0.9092
 IR Inten    --      0.8637                15.3960                 5.9223

                     19                     20                     21
                      A                      A                      A
 Frequencies --    716.4649               832.2800               835.3684
 Red. masses --      2.8103                 2.3653                 1.5255
 Frc consts  --      0.8499                 0.9653                 0.6272
 IR Inten    --      1.6365                 0.4499                 1.5702

                     22                     23                     24
                      A                      A                      A
 Frequencies --    845.0062               878.0897               893.4475
 Red. masses --      3.0369                 1.4046                 2.3108
 Frc consts  --      1.2776                 0.6381                 1.0868
 IR Inten    --     10.1851                 9.6891                19.7941

                     25                     26                     27
                      A                      A                      A
 Frequencies --    899.8768               905.3760               933.5534
 Red. masses --      2.4532                 2.4440                 1.6313
 Frc consts  --      1.1704                 1.1803                 0.8376
 IR Inten    --     28.8461                 5.7778                19.5546

                     28                     29                     30
                      A                      A                      A
 Frequencies --    946.0157               990.1735               995.8116
 Red. masses --      2.2151                 2.4375                 1.3983
 Frc consts  --      1.1680                 1.4080                 0.8170
 IR Inten    --     19.4164                49.8272                12.7870

                     31                     32                     33
                      A                      A                      A
 Frequencies --   1020.6426              1044.7993              1054.9103
 Red. masses --      2.1968                 2.1893                 1.7381
 Frc consts  --      1.3483                 1.4081                 1.1396
 IR Inten    --     70.8434                49.1505                63.0747

                     34                     35                     36
                      A                      A                      A
 Frequencies --   1064.0955              1071.8939              1118.5590
 Red. masses --      1.5151                 2.3134                 4.6017
 Frc consts  --      1.0108                 1.5660                 3.3922
 IR Inten    --     59.1760                26.4214               297.9412

                     37                     38                     39
                      A                      A                      A
 Frequencies --   1146.9112              1150.5496              1167.2794
 Red. masses --      2.5847                 2.6937                 2.4236
 Frc consts  --      2.0032                 2.1010                 1.9457
 IR Inten    --     36.4982               118.3770                23.8603

                     40                     41                     42
                      A                      A                      A
 Frequencies --   1173.1289              1191.6156              1209.9183
 Red. masses --      3.9590                 2.2151                 1.4200
 Frc consts  --      3.2102                 1.8532                 1.2247
 IR Inten    --    181.2176                36.4636                21.6877

                     43                     44                     45
                      A                      A                      A
 Frequencies --   1218.0036              1234.3768              1253.5409
 Red. masses --      1.6610                 1.6486                 1.4887
 Frc consts  --      1.4519                 1.4800                 1.3783
 IR Inten    --     18.8176                67.9362                25.2675

                     46                     47                     48
                      A                      A                      A
 Frequencies --   1287.7707              1302.3863              1319.0965
 Red. masses --      1.2175                 1.1843                 1.1513
 Frc consts  --      1.1896                 1.1836                 1.1803
 IR Inten    --     16.2520                19.1641                 7.3241

                     49                     50                     51
                      A                      A                      A
 Frequencies --   1327.4233              1338.6728              1353.8185
 Red. masses --      1.2651                 1.2046                 1.2424
 Frc consts  --      1.3134                 1.2719                 1.3416
 IR Inten    --      8.9543                 6.8865                 8.3242

                     52                     53                     54
                      A                      A                      A
 Frequencies --   1360.4609              1383.6872              1385.1810
 Red. masses --      1.3192                 1.4585                 1.4724
 Frc consts  --      1.4386                 1.6452                 1.6645
 IR Inten    --      4.6407                 2.8440                 4.0266

                     55                     56                     57
                      A                      A                      A
 Frequencies --   1390.6699              1397.9903              1399.1664
 Red. masses --      1.6610                 1.5217                 1.2699
 Frc consts  --      1.8926                 1.7522                 1.4647
 IR Inten    --     13.9778                 7.3095                15.8716

                     58                     59                     60
                      A                      A                      A
 Frequencies --   1405.5472              1420.0051              1429.4616
 Red. masses --      1.4187                 1.4782                 1.3913
 Frc consts  --      1.6513                 1.7562                 1.6750
 IR Inten    --     25.8052                13.0518                21.2063

                     61                     62                     63
                      A                      A                      A
 Frequencies --   1442.1099              1476.7252              1481.8348
 Red. masses --      1.3683                 1.1058                 1.0920
 Frc consts  --      1.6766                 1.4208                 1.4128
 IR Inten    --      2.2249                 4.2645                 7.4802

                     64                     65                     66
                      A                      A                      A
 Frequencies --   1483.1264              1493.0194              1496.1666
 Red. masses --      1.0858                 1.0999                 1.1073
 Frc consts  --      1.4072                 1.4445                 1.4604
 IR Inten    --      8.2890                10.0851                14.3883

                     67                     68                     69
                      A                      A                      A
 Frequencies --   1499.6123              1509.6017              1512.0839
 Red. masses --      1.0990                 1.0944                 1.1013
 Frc consts  --      1.4561                 1.4694                 1.4836
 IR Inten    --      1.6308                 2.8463                 8.2683

                     70                     71                     72
                      A                      A                      A
 Frequencies --   3011.6715              3019.1599              3024.5686
 Red. masses --      1.0730                 1.0704                 1.0808
 Frc consts  --      5.7341                 5.7487                 5.8251
 IR Inten    --     13.8677                82.6942                85.6648

                     73                     74                     75
                      A                      A                      A
 Frequencies --   3054.9080              3057.3658              3063.4714
 Red. masses --      1.0689                 1.0656                 1.0627
 Frc consts  --      5.8775                 5.8684                 5.8763
 IR Inten    --     51.2376                36.2108                43.0247

                     76                     77                     78
                      A                      A                      A
 Frequencies --   3069.6305              3071.0173              3072.5748
 Red. masses --      1.0762                 1.0620                 1.0660
 Frc consts  --      5.9747                 5.9014                 5.9295
 IR Inten    --     30.8529                39.6240                20.7725

                     79                     80                     81
                      A                      A                      A
 Frequencies --   3082.0297              3113.3599              3116.4872
 Red. masses --      1.0693                 1.0981                 1.0977
 Frc consts  --      5.9842                 6.2712                 6.2814
 IR Inten    --     72.7301                39.7784                39.2605

                     82                     83                     84
                      A                      A                      A
 Frequencies --   3119.4983              3121.4754              3131.2855
 Red. masses --      1.1022                 1.1025                 1.0950
 Frc consts  --      6.3197                 6.3289                 6.3259
 IR Inten    --     65.7719                52.4310                48.5461

                     85                     86                     87
                      A                      A                      A
 Frequencies --   3131.9887              3135.8748              3159.0421
 Red. masses --      1.1028                 1.0985                 1.0934
 Frc consts  --      6.3736                 6.3644                 6.4291
 IR Inten    --     39.0820                43.7141                21.0231

 - Thermochemistry -
 -------------------
 Temperature   298.150 Kelvin.  Pressure   1.00000 Atm.
 Atom     1 has atomic number  6 and mass  12.00000

 Molecular mass:   186.12559 amu.
 Principal axes and moments of inertia in atomic units:
                           1         2         3
     Eigenvalues --   959.754974208.457734588.41566
           X            0.99999  -0.00510   0.00136
           Y            0.00504   0.99917   0.04052
           Z           -0.00156  -0.04051   0.99918
 This molecule is an asymmetric top.
 Rotational symmetry number  1.
 Warning -- assumption of classical behavior for rotation
           may cause significant error
 Rotational temperatures (Kelvin)      0.09025     0.02058     0.01888
 Rotational constants (GHZ):           1.88042     0.42884     0.39333
 Zero-point vibrational energy     736645.8 (Joules/Mol)
                                  176.06258 (Kcal/Mol)
 Warning -- explicit consideration of  18 degrees of freedom as
           vibrations may cause significant error
 Vibrational temperatures:     35.45    80.00   143.31   197.31   287.26
          (Kelvin)            336.55   355.55   397.44   478.66   523.24
                              552.14   634.12   643.36   666.21   695.53
                              765.66   826.96   891.40  1030.83  1197.47
                             1201.91  1215.78  1263.38  1285.47  1294.72
                             1302.63  1343.18  1361.11  1424.64  1432.75
                             1468.48  1503.23  1517.78  1531.00  1542.22
                             1609.36  1650.15  1655.38  1679.45  1687.87
                             1714.47  1740.80  1752.44  1775.99  1803.57
                             1852.81  1873.84  1897.89  1909.87  1926.05
                             1947.84  1957.40  1990.82  1992.97  2000.86
                             2011.40  2013.09  2022.27  2043.07  2056.68
                             2074.87  2124.68  2132.03  2133.89  2148.12
                             2152.65  2157.61  2171.98  2175.55  4333.12
                             4343.90  4351.68  4395.33  4398.87  4407.65
                             4416.51  4418.51  4420.75  4434.35  4479.43
                             4483.93  4488.26  4491.11  4505.22  4506.23
                             4511.82  4545.16

 Zero-point correction=                           0.280574 (Hartree/Particle)
 Thermal correction to Energy=                    0.292345
 Thermal correction to Enthalpy=                  0.293289
 Thermal correction to Gibbs Free Energy=         0.241819
 Sum of electronic and zero-point Energies=           -617.223482
 Sum of electronic and thermal Energies=              -617.211711
 Sum of electronic and thermal Enthalpies=            -617.210767
 Sum of electronic and thermal Free Energies=         -617.262236

                     E (Thermal)             CV                S
                      KCal/Mol        Cal/Mol-Kelvin    Cal/Mol-Kelvin
 Total                  183.449             46.734            108.327
 Electronic               0.000              0.000              0.000
 Translational            0.889              2.981             41.570
 Rotational               0.889              2.981             31.294
 Vibrational            181.672             40.773             35.463
 Vibration     1          0.593              1.985              6.220
 Vibration     2          0.596              1.975              4.607
 Vibration     3          0.604              1.949              3.462
 Vibration     4          0.614              1.916              2.843
 Vibration     5          0.638              1.840              2.136
 Vibration     6          0.654              1.789              1.849
 Vibration     7          0.661              1.768              1.751
 Vibration     8          0.678              1.717              1.557
 Vibration     9          0.715              1.610              1.247
 Vibration    10          0.737              1.547              1.106
 Vibration    11          0.753              1.505              1.024
 Vibration    12          0.801              1.381              0.824
 Vibration    13          0.806              1.367              0.804
 Vibration    14          0.821              1.332              0.757
 Vibration    15          0.840              1.287              0.701
 Vibration    16          0.887              1.179              0.582
 Vibration    17          0.931              1.086              0.495
 Vibration    18          0.980              0.991              0.417

 Optimization completed.
    -- Stationary point found.
 Normal termination of Gaussian 16 at Sun Nov  4 22:53:52 2018.
